chemcompute.org
{'UTCtimestamp': '2022-10-03T21:04:17.786801', 'cluster': 'jetstream2', 'clusterJobNumber': '120468', 'status': 'RUNNING', 'nodeList': 'chemcompute-node-2'}
----- GAMESS execution script 'rungms' -----
This job is running on host chemcompute-node-2.novalocal
under operating system Linux at Mon Oct 3 21:04:21 UTC 2022
SLURM has assigned the following compute nodes to this run:
Available scratch disk space (Kbyte units) at beginning of the job is
Filesystem     1K-blocks     Used Available Use% Mounted on
/dev/sda1       62903276 11715920  51187356  19% /
GAMESS temporary binary files will be written to /scratch/120468
GAMESS supplementary output files will be written to /data/slurm/46/460032
Copying input file 460032.inp to your run's scratch directory...
The generated host list is
chemcompute-node-2.novalocal

 Distributed Data Interface kickoff program.
 Initiating 1 compute processes on 1 nodes to run the following command:
 /data/gamess-2019R1-avx2-ddi/gamess.00.x 460032 

          ******************************************************
          *         GAMESS VERSION = 30 JUN 2019 (R1)          *
          *             FROM IOWA STATE UNIVERSITY             *
          * M.W.SCHMIDT, K.K.BALDRIDGE, J.A.BOATZ, S.T.ELBERT, *
          *   M.S.GORDON, J.H.JENSEN, S.KOSEKI, N.MATSUNAGA,   *
          *          K.A.NGUYEN, S.J.SU, T.L.WINDUS,           *
          *       TOGETHER WITH M.DUPUIS, J.A.MONTGOMERY       *
          *         J.COMPUT.CHEM.  14, 1347-1363(1993)        *
          **************** 64 BIT INTEL VERSION ****************

  SINCE 1993, STUDENTS AND POSTDOCS WORKING AT IOWA STATE UNIVERSITY
  AND ALSO IN THEIR VARIOUS JOBS AFTER LEAVING ISU HAVE MADE IMPORTANT
  CONTRIBUTIONS TO THE CODE:
     IVANA ADAMOVIC, CHRISTINE AIKENS, YURI ALEXEEV, POOJA ARORA,
     ANDREY ASADCHEV, ROB BELL, PRADIPTA BANDYOPADHYAY, JONATHAN BENTZ,
     COLLEEN BERTONI, BRETT BODE, KURT BRORSEN, CALEB CARLIN, GALINA CHABAN,
     WEI CHEN, CHEOL HO CHOI, PAUL DAY, ALBERT DEFUSCO, NUWAN DESILVA,
     TIM DUDLEY, DMITRI FEDOROV, ALEX FINDLATER, GRAHAM FLETCHER, 
     MARK FREITAG, KURT GLAESEMANN, ANASTASIA GUNINA,
     DAN KEMP, GRANT MERRILL, NORIYUKI MINEZAWA, JONATHAN MULLIN,
     TAKESHI NAGATA, SEAN NEDD, HEATHER NETZLOFF, BOSILJKA NJEGIC, RYAN OLSON,
     MIKE PAK, BUU PHAM,
     SPENCER PRUITT, LUKE ROSKOP, JIM SHOEMAKER, LYUDMILA SLIPCHENKO,
     TONY SMITH, SAROM SOK LEANG, JIE SONG, TETSUYA TAKETSUGU, SIMON WEBB,
     PENG XU, SOOHAENG YOO, FEDERICO ZAHARIEV

  ADDITIONAL CODE HAS BEEN PROVIDED BY COLLABORATORS IN OTHER GROUPS:
     IOWA STATE UNIVERSITY:
          JOE IVANIC, AARON WEST, LAIMUTIS BYTAUTAS, KLAUS RUEDENBERG
     UNIVERSITY OF TOKYO: KIMIHIKO HIRAO, TAKAHITO NAKAJIMA,
          TAKAO TSUNEDA, MUNEAKI KAMIYA, SUSUMU YANAGISAWA,
          KIYOSHI YAGI, MAHITO CHIBA, SEIKEN TOKURA, NAOAKI KAWAKAMI
     UNIVERSITY OF AARHUS: FRANK JENSEN
     UNIVERSITY OF IOWA: VISVALDAS KAIRYS, HUI LI
     NATIONAL INST. OF STANDARDS AND TECHNOLOGY: WALT STEVENS, DAVID GARMER
     UNIVERSITY OF PISA: BENEDETTA MENNUCCI, JACOPO TOMASI
     UNIVERSITY OF MEMPHIS: HENRY KURTZ, PRAKASHAN KORAMBATH
     UNIVERSITY OF ALBERTA: TOBY ZENG, MARIUSZ KLOBUKOWSKI
     UNIVERSITY OF NEW ENGLAND: MARK SPACKMAN
     MIE UNIVERSITY: HIROAKI UMEDA
     NAT. INST. OF ADVANCED INDUSTRIAL SCIENCE AND TECHNOLOGY: KAZUO KITAURA
     MICHIGAN STATE UNIVERSITY:
          KAROL KOWALSKI, MARTA WLOCH, JEFFREY GOUR, JESSE LUTZ,
          WEI LI, JUN SHEN, J. EMILIANO DEUSTUA, PIOTR PIECUCH
     UNIVERSITY OF MINNESOTA:
          YINAN SHU
     UNIVERSITY OF SILESIA: MONIKA MUSIAL, STANISLAW KUCHARSKI
     FACULTES UNIVERSITAIRES NOTRE-DAME DE LA PAIX:
          OLIVIER QUINET, BENOIT CHAMPAGNE
     UNIVERSITY OF CALIFORNIA - SANTA BARBARA: BERNARD KIRTMAN
     INSTITUTE FOR MOLECULAR SCIENCE:
          KAZUYA ISHIMURA, MICHIO KATOUDA, AND SHIGERU NAGASE
     UNIVERSITY OF NOTRE DAME: ANNA POMOGAEVA, DAN CHIPMAN
     KYUSHU UNIVERSITY:
          HARUYUKI NAKANO,
          FENG LONG GU, JACEK KORCHOWIEC, MARCIN MAKOWSKI, AND YURIKO AOKI,
          HIROTOSHI MORI AND EISAKU MIYOSHI
     PENNSYLVANIA STATE UNIVERSITY:
          TZVETELIN IORDANOV, CHET SWALINA, JONATHAN SKONE,
          SHARON HAMMES-SCHIFFER
     WASEDA UNIVERSITY:
          MASATO KOBAYASHI, TOMOKO AKAMA, TSUGUKI TOUMA,
          TAKESHI YOSHIKAWA, YASUHIRO IKABATA, JUNJI SEINO,
          YUYA NAKAJIMA, HIROMI NAKAI
     NANJING UNIVERSITY: SHUHUA LI
     UNIVERSITY OF NEBRASKA:
          PEIFENG SU, DEJUN SI, NANDUN THELLAMUREGE, YALI WANG, HUI LI
     UNIVERSITY OF ZURICH: ROBERTO PEVERATI, KIM BALDRIDGE
     N. COPERNICUS UNIVERSITY AND JACKSON STATE UNIVERSITY:
          MARIA BARYSZ
     UNIVERSITY OF COPENHAGEN: Jimmy Kromann, CASPER STEINMANN
     TOKYO INSTITUTE OF TECHNOLOGY: HIROYA NAKATA
     NAGOYA UNIVERSITY: YOSHIO NISHIMOTO, STEPHAN IRLE
     MOSCOW STATE UNIVERSITY: VLADIMIR MIRONOV
     A.N.NESMEYANOV INSTITUTE OF ORGANOELEMENT COMPOUNDS OF RUSSIAN ACADEMY OF SCIENCES:
          IGOR S. GERASIMOV

 EXECUTION OF GAMESS BEGUN Mon Oct  3 21:04:21 2022

            ECHO OF THE FIRST FEW INPUT CARDS -
 INPUT CARD>!                                                                               
 INPUT CARD>!   GAMESS Calculation input file                                               
 INPUT CARD>!   SGMG                                                                        
 INPUT CARD>!                                                                               
 INPUT CARD> $CONTRL SCFTYP=RHF MAXIT=200 RUNTYP=OPTIMIZE                                   
 INPUT CARD>         COORD=UNIQUE MULT=1                                                    
 INPUT CARD>         ICHARG=0                                                               
 INPUT CARD>         DFTTYP=B3LYP                                                           
 INPUT CARD>         MOLPLT=.FALSE. PLTORB=.FALSE.  $END                                    
 INPUT CARD> $SYSTEM TIMLIM=2879 MWORDS=250  $END                                           
 INPUT CARD>                                                                                
 INPUT CARD> $FORCE METHOD=SEMINUM NVIB=2 $END                                              
 INPUT CARD> $STATPT OPTTOL=0.0005 NSTEP=999 $END                                           
 INPUT CARD> $STATPT IHREP=0 HSSEND=.TRUE.  $END                                            
 INPUT CARD>                                                                                
 INPUT CARD> $DFT    METHOD=GRID  NLEB=590  $END                                            
 INPUT CARD>                                                                                
 INPUT CARD> $BASIS  GBASIS=N31 NGAUSS=6                                                    
 INPUT CARD>         NDFUNC=1   NPFUNC=0  $END                                              
 INPUT CARD>                                                                                
 INPUT CARD> $SCF    DIRSCF=.T. $END                                                        
 INPUT CARD> $GUESS  GUESS=HUCKEL  $END                                                     
 INPUT CARD>                                                                                
 INPUT CARD> $DATA                                                                          
 INPUT CARD>   SGMG                                                                         
 INPUT CARD>  C1                                                                            
 INPUT CARD>C     6.0    -1.67389    -0.75399     0.20662                                   
 INPUT CARD>C     6.0    -0.36009    -0.67818    -0.04611                                   
 INPUT CARD>C     6.0     0.33964     0.62918    -0.05808                                   
 INPUT CARD>O     8.0     1.55545     0.70484    -0.10115                                   
 INPUT CARD>H     1.0    -2.28054     0.12320     0.41873                                   
 INPUT CARD>H     1.0    -2.17652    -1.71801     0.22149                                   
 INPUT CARD>H     1.0     0.25113    -1.55582    -0.23819                                   
 INPUT CARD>H     1.0    -0.30589     1.52532    -0.01632                                   
 INPUT CARD> $END                                                                           
 INPUT CARD>                                                                                
 INPUT CARD>                                                                                
 INPUT CARD>! Customizations after this line are persisted when using Do More Calculations  
  250000000 WORDS OF MEMORY AVAILABLE

     BASIS OPTIONS
     -------------
     GBASIS=N31          IGAUSS=       6      POLAR=POPN31  
     NDFUNC=       1     NFFUNC=       0     DIFFSP=       F
     NPFUNC=       0      DIFFS=       F     BASNAM=        


     RUN TITLE
     ---------
    SGMG                                                                         

 THE POINT GROUP OF THE MOLECULE IS C1      
 THE ORDER OF THE PRINCIPAL AXIS IS     0

 ATOM      ATOMIC                      COORDINATES (BOHR)
           CHARGE         X                   Y                   Z
 C           6.0    -3.1631934336       -1.4248344975        0.3904551836
 C           6.0    -0.6804714309       -1.2815743704       -0.0871352653
 C           6.0     0.6418265345        1.1889777970       -0.1097552854
 O           8.0     2.9393742876        1.3319544652       -0.1911457837
 H           1.0    -4.3095957040        0.2328142417        0.7912849628
 H           1.0    -4.1130264068       -3.2465681442        0.4185554090
 H           1.0     0.4745668873       -2.9400734862       -0.4501138330
 H           1.0    -0.5780482824        2.8824368436       -0.0308403281

          INTERNUCLEAR DISTANCES (ANGS.)
          ------------------------------

                1 C          2 C          3 C          4 O          5 H     

   1 C       0.0000000    1.3400336 *  2.4571383 *  3.5569009    1.0874177 *
   2 C       1.3400336 *  0.0000000    1.4828876 *  2.3632747 *  2.1322322 *
   3 C       2.4571383 *  1.4828876 *  0.0000000    1.2189231 *  2.7108498 *
   4 O       3.5569009    2.3632747 *  1.2189231 *  0.0000000    3.9145114  
   5 H       1.0874177 *  2.1322322 *  2.7108498 *  3.9145114    0.0000000  
   6 H       1.0872868 *  2.1100413 *  3.4523212    4.4611544    1.8546639 *
   7 H       2.1322498 *  1.0866170 *  2.1941966 *  2.6135444 *  3.1080549  
   8 H       2.6676545 *  2.2043678 *  1.1052239 *  2.0359200 *  2.4605795 *

                6 H          7 H          8 H     

   1 C       1.0872868 *  2.1322498 *  2.6676545 *
   2 C       2.1100413 *  1.0866170 *  2.2043678 *
   3 C       3.4523212    2.1941966 *  1.1052239 *
   4 O       4.4611544    2.6135444 *  2.0359200 *
   5 H       1.8546639 *  3.1080549    2.4605795 *
   6 H       0.0000000    2.4761050 *  3.7516663  
   7 H       2.4761050 *  0.0000000    3.1389363  
   8 H       3.7516663    3.1389363    0.0000000  

  * ... LESS THAN  3.000


     ATOMIC BASIS SET
     ----------------
 THE CONTRACTED PRIMITIVE FUNCTIONS HAVE BEEN UNNORMALIZED
 THE CONTRACTED BASIS FUNCTIONS ARE NOW NORMALIZED TO UNITY

  SHELL TYPE  PRIMITIVE        EXPONENT          CONTRACTION COEFFICIENT(S)

 C         

      1   S       1          3047.5248800    0.001834737132
      1   S       2           457.3695180    0.014037322813
      1   S       3           103.9486850    0.068842622264
      1   S       4            29.2101553    0.232184443216
      1   S       5             9.2866630    0.467941348435
      1   S       6             3.1639270    0.362311985337

      2   L       7             7.8682723   -0.119332419775    0.068999066591
      2   L       8             1.8812885   -0.160854151696    0.316423960957
      2   L       9             0.5442493    1.143456437840    0.744308290898

      3   L      10             0.1687145    1.000000000000    1.000000000000

      4   D      11             0.8000000    1.000000000000

 C         

      5   S      12          3047.5248800    0.001834737132
      5   S      13           457.3695180    0.014037322813
      5   S      14           103.9486850    0.068842622264
      5   S      15            29.2101553    0.232184443216
      5   S      16             9.2866630    0.467941348435
      5   S      17             3.1639270    0.362311985337

      6   L      18             7.8682723   -0.119332419775    0.068999066591
      6   L      19             1.8812885   -0.160854151696    0.316423960957
      6   L      20             0.5442493    1.143456437840    0.744308290898

      7   L      21             0.1687145    1.000000000000    1.000000000000

      8   D      22             0.8000000    1.000000000000

 C         

      9   S      23          3047.5248800    0.001834737132
      9   S      24           457.3695180    0.014037322813
      9   S      25           103.9486850    0.068842622264
      9   S      26            29.2101553    0.232184443216
      9   S      27             9.2866630    0.467941348435
      9   S      28             3.1639270    0.362311985337

     10   L      29             7.8682723   -0.119332419775    0.068999066591
     10   L      30             1.8812885   -0.160854151696    0.316423960957
     10   L      31             0.5442493    1.143456437840    0.744308290898

     11   L      32             0.1687145    1.000000000000    1.000000000000

     12   D      33             0.8000000    1.000000000000

 O         

     13   S      34          5484.6716600    0.001831074430
     13   S      35           825.2349460    0.013950172200
     13   S      36           188.0469580    0.068445078098
     13   S      37            52.9645000    0.232714335992
     13   S      38            16.8975704    0.470192897984
     13   S      39             5.7996353    0.358520852987

     14   L      40            15.5396162   -0.110777549525    0.070874268231
     14   L      41             3.5999336   -0.148026262701    0.339752839147
     14   L      42             1.0137618    1.130767015354    0.727158577316

     15   L      43             0.2700058    1.000000000000    1.000000000000

     16   D      44             0.8000000    1.000000000000

 H         

     17   S      45            18.7311370    0.033494604338
     17   S      46             2.8253944    0.234726953484
     17   S      47             0.6401217    0.813757326146

     18   S      48             0.1612778    1.000000000000

 H         

     19   S      49            18.7311370    0.033494604338
     19   S      50             2.8253944    0.234726953484
     19   S      51             0.6401217    0.813757326146

     20   S      52             0.1612778    1.000000000000

 H         

     21   S      53            18.7311370    0.033494604338
     21   S      54             2.8253944    0.234726953484
     21   S      55             0.6401217    0.813757326146

     22   S      56             0.1612778    1.000000000000

 H         

     23   S      57            18.7311370    0.033494604338
     23   S      58             2.8253944    0.234726953484
     23   S      59             0.6401217    0.813757326146

     24   S      60             0.1612778    1.000000000000

 TOTAL NUMBER OF BASIS SET SHELLS             =   24
 NUMBER OF CARTESIAN GAUSSIAN BASIS FUNCTIONS =   68
 NUMBER OF ELECTRONS                          =   30
 CHARGE OF MOLECULE                           =    0
 SPIN MULTIPLICITY                            =    1
 NUMBER OF OCCUPIED ORBITALS (ALPHA)          =   15
 NUMBER OF OCCUPIED ORBITALS (BETA )          =   15
 TOTAL NUMBER OF ATOMS                        =    8
 THE NUCLEAR REPULSION ENERGY IS      102.7536470065

 SELECTED MURRAY-HANDY-LAMING RADIAL GRID

 LEGACY BECKE'S FUZZY CELL METHOD

 SELECTED ORIGINAL BECKE'S PARTITION FUNCTION

     LEBEDEV GRID-BASED DFT OPTIONS
     ------------------------------
     DFTTYP=B3LYP   
     NRAD  =      96     NLEB  =     590
     NRAD0 =      24     NLEB0 =     110
     SWOFF =    5.00E-03 (PURE SCF -> DFT)
     SWITCH=    3.00E-04 (COARSE -> TIGHT GRID)
     THRESH=    0.00E+00 GTHRE=    1.00E+00

 GRIMME'S EMPIRICAL DISPERSION CORRECTION= F

     $CONTRL OPTIONS
     ---------------
 SCFTYP=RHF          RUNTYP=OPTIMIZE     EXETYP=RUN     
 MPLEVL=       0     CITYP =NONE         CCTYP =NONE         VBTYP =NONE    
 DFTTYP=B3LYP        TDDFT =NONE    
 MULT  =       1     ICHARG=       0     NZVAR =       0     COORD =UNIQUE  
 PP    =NONE         RELWFN=NONE         LOCAL =NONE         NUMGRD=       F
 ISPHER=      -1     NOSYM =       0     MAXIT =     200     UNITS =ANGS    
 PLTORB=       F     MOLPLT=       F     AIMPAC=       F     FRIEND=        
 NPRINT=       7     IREST =       0     GEOM  =INPUT   
 NORMF =       0     NORMP =       0     ITOL  =      20     ICUT  =       9
 INTTYP=BEST         GRDTYP=BEST         QMTTOL= 1.0E-06

     $SYSTEM OPTIONS
     ---------------
  REPLICATED MEMORY=   250000000 WORDS (ON EVERY NODE).
 DISTRIBUTED MEMDDI=           0 MILLION WORDS IN AGGREGATE,
 MEMDDI DISTRIBUTED OVER   1 PROCESSORS IS           0 WORDS/PROCESSOR.
 TOTAL MEMORY REQUESTED ON EACH PROCESSOR=   250000000 WORDS.
 TIMLIM=        2879.00 MINUTES, OR       2.0 DAYS.
 PARALL= F  BALTYP=  DLB     KDIAG=    0  COREFL= F
 MXSEQ2=     300 MXSEQ3=     150  mem10=         0

          ----------------
          PROPERTIES INPUT
          ----------------

     MOMENTS            FIELD           POTENTIAL          DENSITY
 IEMOM =       1   IEFLD =       0   IEPOT =       0   IEDEN =       0
 WHERE =COMASS     WHERE =NUCLEI     WHERE =NUCLEI     WHERE =NUCLEI  
 OUTPUT=BOTH       OUTPUT=BOTH       OUTPUT=BOTH       OUTPUT=BOTH    
 IEMINT=       0   IEFINT=       0                     IEDINT=       0
                                                       MORB  =       0
          EXTRAPOLATION IN EFFECT
          DIIS IN EFFECT
 ORBITAL PRINTING OPTION: NPREO=     1    68     2     1

     -------------------------------
     INTEGRAL TRANSFORMATION OPTIONS
     -------------------------------
     NWORD  =            0
     CUTOFF = 1.0E-09     MPTRAN =       0
     DIRTRF =       T     AOINTS =DUP     

          ----------------------
          INTEGRAL INPUT OPTIONS
          ----------------------
 NOPK  =       1 NORDER=       0 SCHWRZ=       T

     ------------------------------------------
     THE POINT GROUP IS C1 , NAXIS= 0, ORDER= 1
     ------------------------------------------

     DIMENSIONS OF THE SYMMETRY SUBSPACES ARE
 A   =   68

 ..... DONE SETTING UP THE RUN .....
 STEP CPU TIME =     0.01 TOTAL CPU TIME =          0.0 (      0.0 MIN)
 TOTAL WALL CLOCK TIME=          0.0 SECONDS, CPU UTILIZATION IS    33.33%


          -----------------------------
          STATIONARY POINT LOCATION RUN
          -----------------------------

 OBTAINING INITIAL HESSIAN, HESS=GUESS   
 CARTESIAN COORDINATE OPTIMIZATION USING BADGER'S RULE FORCE CONSTANT GUESS

          PARAMETERS CONTROLLING GEOMETRY SEARCH ARE
          METHOD =QA                  UPHESS =BFGS    
          NNEG   =         0          NFRZ   =         0
          NSTEP  =       999          IFOLOW =         1
          HESS   =GUESS               RESTAR =         F
          IHREP  =         0          HSSEND =         T
          NPRT   =         0          NPUN   =         0
          OPTTOL = 5.000E-04          RMIN   = 1.500E-03
          RMAX   = 1.000E-01          RLIM   = 7.000E-02
          DXMAX  = 3.000E-01          PURIFY =         F
          MOVIE  =         F          TRUPD  =         T
          TRMAX  = 5.000E-01          TRMIN  = 5.000E-02
          ITBMAT =         5          STPT   =         F
          STSTEP = 1.000E-02          PROJCT=          T

 BEGINNING GEOMETRY SEARCH POINT NSERCH=   0 ...

 COORDINATES OF ALL ATOMS ARE (ANGS)
   ATOM   CHARGE       X              Y              Z
 ------------------------------------------------------------
 C           6.0  -1.6738900000  -0.7539900000   0.2066200000
 C           6.0  -0.3600900000  -0.6781800000  -0.0461100000
 C           6.0   0.3396400000   0.6291800000  -0.0580800000
 O           8.0   1.5554500000   0.7048400000  -0.1011500000
 H           1.0  -2.2805400000   0.1232000000   0.4187300000
 H           1.0  -2.1765200000  -1.7180100000   0.2214900000
 H           1.0   0.2511300000  -1.5558200000  -0.2381900000
 H           1.0  -0.3058900000   1.5253200000  -0.0163200000

          ********************
          1 ELECTRON INTEGRALS
          ********************
 ...... END OF ONE-ELECTRON INTEGRALS ......
 STEP CPU TIME =     0.00 TOTAL CPU TIME =          0.0 (      0.0 MIN)
 TOTAL WALL CLOCK TIME=          0.1 SECONDS, CPU UTILIZATION IS    16.67%

          -------------
          GUESS OPTIONS
          -------------
          GUESS =HUCKEL            NORB  =       0          NORDER=       0
          MIX   =       F          PRTMO =       F          PUNMO =       F
          TOLZ  = 1.0E-08          TOLE  = 1.0E-05
          SYMDEN=       F          PURIFY=       F

 INITIAL GUESS ORBITALS GENERATED BY HUCKEL   ROUTINE.
 HUCKEL GUESS REQUIRES     42032 WORDS.

 SYMMETRIES FOR INITIAL GUESS ORBITALS FOLLOW.   BOTH SET(S).
    15 ORBITALS ARE OCCUPIED (    4 CORE ORBITALS).
     5=A        6=A        7=A        8=A        9=A       10=A       11=A   
    12=A       13=A       14=A       15=A       16=A       17=A       18=A   
    19=A       20=A       21=A       22=A       23=A       24=A       25=A   
 ...... END OF INITIAL ORBITAL SELECTION ......
 STEP CPU TIME =     0.02 TOTAL CPU TIME =          0.0 (      0.0 MIN)
 TOTAL WALL CLOCK TIME=          0.1 SECONDS, CPU UTILIZATION IS    37.50%

                    ----------------------
                    AO INTEGRAL TECHNOLOGY
                    ----------------------
     S,P,L SHELL ROTATED AXIS INTEGRALS, REPROGRAMMED BY
        KAZUYA ISHIMURA (IMS) AND JOSE SIERRA (SYNSTAR).
     S,P,D,L SHELL ROTATED AXIS INTEGRALS PROGRAMMED BY
        KAZUYA ISHIMURA (INSTITUTE FOR MOLECULAR SCIENCE).
     S,P,D,F,G SHELL TO TOTAL QUARTET ANGULAR MOMENTUM SUM 5,
        ERIC PROGRAM BY GRAHAM FLETCHER (ELORET AND NASA ADVANCED
        SUPERCOMPUTING DIVISION, AMES RESEARCH CENTER).
     S,P,D,F,G,L SHELL GENERAL RYS QUADRATURE PROGRAMMED BY
        MICHEL DUPUIS (PACIFIC NORTHWEST NATIONAL LABORATORY).

          --------------------
          2 ELECTRON INTEGRALS
          --------------------

 DIRECT SCF METHOD SKIPS INTEGRAL STORAGE ON DISK.
 DIRECT TRANSFORMATION SKIPS AO INTEGRAL STORAGE ON DISK.
  ...... END OF TWO-ELECTRON INTEGRALS .....
 STEP CPU TIME =     0.00 TOTAL CPU TIME =          0.0 (      0.0 MIN)
 TOTAL WALL CLOCK TIME=          0.1 SECONDS, CPU UTILIZATION IS    33.33%

          --------------------------
             R-B3LYP SCF CALCULATION
          --------------------------

     NUCLEAR ENERGY =       102.7536470065
     MAXIT =  200     NPUNCH=    2
     EXTRAP=T  DAMP=F  SHIFT=F  RSTRCT=F  DIIS=T  DEM=F  SOSCF=F
         DENSITY MATRIX CONVERGENCE THRESHOLD=  2.00E-05
     COARSE -> FINE DFT GRID SWITCH THRESHOLD=  3.00E-04 (SWITCH IN $DFT)
                   HF -> DFT SWITCH THRESHOLD=  5.00E-03 (SWOFF IN $DFT)
     MEMORY REQUIRED FOR RHF ITERS=    620217 WORDS.

 DIRECT SCF CALCULATION, SCHWRZ=T   FDIFF=T,  DIRTHR=  0.00E+00 NITDIR=10
 SCHWARZ INEQUALITY OVERHEAD:      2343 INTEGRALS, T=        0.00

 DFT CODE IS SWITCHING FROM THE FINE GRID NRAD= 96,  NLEB=  590
                      TO THE COARSE GRID NRAD0= 24, NLEB0=  110

     EXCHANGE FUNCTIONAL   =B88&HFX   
     CORRELATION FUNCTIONAL=LYP88&VWN5
     DFT THRESHOLD         =.883E-08
     GRID CHANGE THRESHOLD =.300E-03
 FOR AN EULER-MACLAURIN QUADRATURE USING  96 RADIAL POINTS:
 SMALLEST GAUSSIAN PRIMITIVE EXPONENT=        0.1612777588 OF TYPE -S-
 ON ATOM NUMBER   5 HAS RADIAL NORMALIZATION=  1.000000
  LARGEST GAUSSIAN PRIMITIVE EXPONENT=     5484.6716600000 OF TYPE -S-
 ON ATOM NUMBER   4 HAS RADIAL NORMALIZATION=  1.000000
 DFT IS SWITCHED OFF, PERFORMING PURE SCF UNTIL SWOFF THRESHOLD IS REACHED.

                                                                                   NONZERO     BLOCKS
 ITER EX DEM     TOTAL ENERGY        E CHANGE  DENSITY CHANGE    DIIS ERROR      INTEGRALS    SKIPPED
          * * *   INITIATING DIIS PROCEDURE   * * *
   1  0  0     -190.2064363059  -190.2064363059   0.301407211   0.413898023        2574555       4279
   2  1  0     -190.6972563874    -0.4908200815   0.145328384   0.118804574        2574397       4547
   3  2  0     -190.7361587783    -0.0389023909   0.069799413   0.076881243        2570249       4954
   4  3  0     -190.7586620488    -0.0225032705   0.011840199   0.005634981        2561150       5371
   5  4  0     -190.7592184902    -0.0005564413   0.006667865   0.002851807        2541933       6020
   6  5  0     -190.7593033791    -0.0000848889   0.002978715   0.001130138        2521545       6689
 CONVERGED TO SWOFF, SO DFT CALCULATION IS NOW SWITCHED ON.
          * * *   INITIATING DIIS PROCEDURE   * * *
   7  6  0     -191.7802051527    -1.0209017736   0.131969112   0.095019829        2574862       4284
   8  7  0     -191.7977868921    -0.0175817394   0.072006265   0.034356262        2571231       4843
   9  8  0     -191.7927541147     0.0050327774   0.057294377   0.051506614        2562613       5233
  10  9  0     -191.8020276103    -0.0092734956   0.009786182   0.009880845        2557237       5515
  11 10  0     -191.8023508975    -0.0003232871   0.001417496   0.000880404        2529756       6283
  12 11  0     -191.8023525928    -0.0000016953   0.000793691   0.000502131        2472810       7719
  13 12  0     -191.8023547010    -0.0000021082   0.000078985   0.000065825        2420562       8984
 DFT CODE IS SWITCHING BACK TO THE FINE GRID
          * * *   INITIATING DIIS PROCEDURE   * * *
  14 13  0     -191.8002935243     0.0020611766   0.002859751   0.001447211        2574945       4255
  15 14  0     -191.8003024237    -0.0000088993   0.000662989   0.000186580        2507977       7075
  16 15  0     -191.8003021762     0.0000002474   0.000442049   0.000317121        2429275       9009
  17 16  0     -191.8003026965    -0.0000005202   0.000133576   0.000091172        2397062       9793
  18 17  0     -191.8003027172    -0.0000000207   0.000042440   0.000039433        2352809      10605
  19 18  0     -191.8003027233    -0.0000000061   0.000012129   0.000005556        2292975      11838
  20 19  0     -191.8003027234    -0.0000000001   0.000005232   0.000003743        2195539      14241

          -----------------
          DENSITY CONVERGED
          -----------------
     TIME TO FORM FOCK OPERATORS=       9.4 SECONDS (       0.5 SEC/ITER)
     FOCK TIME ON FIRST ITERATION=       0.1, LAST ITERATION=       1.1
     TIME TO SOLVE SCF EQUATIONS=       0.1 SECONDS (       0.0 SEC/ITER)

 FINAL R-B3LYP ENERGY IS     -191.8003027234 AFTER  20 ITERATIONS
 DFT EXCHANGE + CORRELATION ENERGY =       -21.1471701785
 TOTAL ELECTRON NUMBER             =        30.0000042668

          ------------
          EIGENVECTORS
          ------------

                      1          2          3          4          5
                  -19.1439   -10.2743   -10.2160   -10.2068    -1.0371
                     A          A          A          A          A   
    1  C  1  S    0.000023  -0.000054   0.991688  -0.045174  -0.003819
    2  C  1  S    0.000112  -0.000240   0.049189  -0.002780   0.009597
    3  C  1  X    0.000059  -0.000073   0.000044  -0.000396   0.005979
    4  C  1  Y    0.000063  -0.000131   0.000037  -0.000037   0.003264
    5  C  1  Z   -0.000018  -0.000004   0.000018   0.000075  -0.000810
    6  C  1  S   -0.000099   0.000015  -0.012713   0.005858   0.010608
    7  C  1  X   -0.000276   0.000426  -0.000905   0.002046  -0.000135
    8  C  1  Y   -0.000516   0.000601  -0.000085   0.000882  -0.012398
    9  C  1  Z    0.000015   0.000014   0.000139  -0.000319  -0.001468
   10  C  1 XX    0.000013   0.000089  -0.009237   0.000048   0.000249
   11  C  1 YY    0.000013  -0.000001  -0.009468   0.000226  -0.000013
   12  C  1 ZZ    0.000066  -0.000125  -0.009755   0.000307   0.000155
   13  C  1 XY   -0.000022   0.000003   0.000018   0.000024   0.000232
   14  C  1 XZ    0.000007  -0.000045  -0.000126   0.000064  -0.000044
   15  C  1 YZ    0.000004   0.000015   0.000030  -0.000014  -0.000050
   16  C  2  S   -0.000011   0.002021   0.044693   0.991745  -0.020284
   17  C  2  S    0.000002  -0.000073   0.001721   0.049613   0.036932
   18  C  2  X   -0.000021  -0.000065   0.000403  -0.000194   0.018816
   19  C  2  Y    0.000041  -0.000315   0.000011   0.000171   0.021935
   20  C  2  Z    0.000008  -0.000012  -0.000078   0.000066  -0.000317
   21  C  2  S    0.000622   0.003067   0.003808  -0.015621   0.023095
   22  C  2  X    0.000574   0.000185  -0.001708   0.001016   0.020123
   23  C  2  Y   -0.000094   0.001644  -0.000270  -0.001877   0.006299
   24  C  2  Z   -0.000046   0.000015   0.000339  -0.000400  -0.001214
   25  C  2 XX   -0.000079  -0.000308  -0.000719  -0.009100   0.002310
   26  C  2 YY   -0.000000  -0.000451  -0.000663  -0.009402   0.004506
   27  C  2 ZZ   -0.000014  -0.000173  -0.000572  -0.009615  -0.002303
   28  C  2 XY   -0.000029  -0.000179  -0.000016   0.000016   0.005026
   29  C  2 XZ   -0.000001   0.000009   0.000034  -0.000119  -0.000415
   30  C  2 YZ    0.000013  -0.000003  -0.000004   0.000017   0.000173
   31  C  3  S    0.000013   0.992819  -0.000113  -0.002289  -0.118430
   32  C  3  S    0.000535   0.048743  -0.000185  -0.000373   0.230658
   33  C  3  X   -0.000007   0.000816   0.000021   0.000099   0.180377
   34  C  3  Y   -0.000048  -0.000011   0.000011   0.000246   0.005865
   35  C  3  Z   -0.000007  -0.000027  -0.000006   0.000008  -0.006593
   36  C  3  S   -0.003346  -0.008763   0.000044   0.005029   0.071257
   37  C  3  X   -0.003081   0.003270  -0.000590  -0.000946  -0.032919
   38  C  3  Y    0.000426   0.000610   0.000034  -0.001863   0.015843
   39  C  3  Z    0.000154  -0.000160   0.000038   0.000037   0.002011
   40  C  3 XX   -0.000886  -0.008423  -0.000007  -0.000182   0.023357
   41  C  3 YY   -0.000031  -0.009441   0.000009  -0.000457  -0.017696
   42  C  3 ZZ   -0.000012  -0.009720  -0.000060  -0.000139  -0.019369
   43  C  3 XY   -0.000054   0.000097   0.000049  -0.000143   0.001545
   44  C  3 XZ    0.000034  -0.000055  -0.000014   0.000012  -0.001850
   45  C  3 YZ    0.000000   0.000002  -0.000001  -0.000021  -0.000046
   46  O  4  S    0.992763  -0.000138  -0.000035   0.000020  -0.194648
   47  O  4  S    0.025699   0.000390  -0.000154   0.000051   0.425133
   48  O  4  X   -0.001163   0.000047   0.000011  -0.000020  -0.161765
   49  O  4  Y   -0.000062   0.000019   0.000008  -0.000016  -0.011466
   50  O  4  Z    0.000042  -0.000006   0.000007  -0.000012   0.005642
   51  O  4  S    0.013758  -0.002840   0.000873  -0.000642   0.398156
   52  O  4  X   -0.001610   0.001976  -0.000230   0.000220  -0.055727
   53  O  4  Y   -0.000207   0.000011  -0.000106   0.000251  -0.007254
   54  O  4  Z    0.000039  -0.000048  -0.000016   0.000024   0.001550
   55  O  4 XX   -0.007560  -0.000349  -0.000080   0.000088   0.010432
   56  O  4 YY   -0.008097   0.000257  -0.000092   0.000114  -0.010620
   57  O  4 ZZ   -0.008115   0.000405  -0.000109  -0.000000  -0.005839
   58  O  4 XY    0.000062  -0.000027   0.000034  -0.000014   0.001951
   59  O  4 XZ   -0.000020   0.000026   0.000001  -0.000005  -0.000581
   60  O  4 YZ   -0.000001  -0.000003   0.000003  -0.000005  -0.000193
   61  H  5  S    0.000090  -0.000123  -0.000337  -0.000124   0.002917
   62  H  5  S    0.000037  -0.000048   0.002163  -0.000507   0.003712
   63  H  6  S   -0.000036   0.000044  -0.000333  -0.000017  -0.000001
   64  H  6  S   -0.000301   0.000515   0.002127   0.000076  -0.007084
   65  H  7  S   -0.000028  -0.000041  -0.000099  -0.000355   0.007570
   66  H  7  S   -0.000307   0.000328   0.000014   0.001674  -0.001589
   67  H  8  S   -0.000043  -0.000250  -0.000060  -0.000115   0.027963
   68  H  8  S   -0.000543   0.002427  -0.000173  -0.000096  -0.016725

                      6          7          8          9         10
                   -0.7973    -0.6441    -0.5728    -0.4765    -0.4691
                     A          A          A          A          A   
    1  C  1  S   -0.145312  -0.131409   0.048020   0.008063   0.006720
    2  C  1  S    0.280808   0.263055  -0.096584  -0.015036  -0.016284
    3  C  1  X    0.098972  -0.070375   0.136676   0.150697   0.302459
    4  C  1  Y    0.012812  -0.043448  -0.089364  -0.255175   0.188785
    5  C  1  Z   -0.017816   0.011636  -0.034570  -0.059320  -0.044247
    6  C  1  S    0.219666   0.245182  -0.104460  -0.050927  -0.006523
    7  C  1  X    0.010447  -0.033357   0.041383   0.045682   0.120780
    8  C  1  Y    0.010443  -0.016730  -0.035398  -0.095210   0.080813
    9  C  1  Z   -0.000990   0.005577  -0.010788  -0.020287  -0.017822
   10  C  1 XX    0.007698  -0.004568   0.006365   0.001198   0.007182
   11  C  1 YY   -0.000107   0.008292  -0.009354  -0.005606  -0.016091
   12  C  1 ZZ   -0.014271  -0.011639   0.004381   0.000713   0.000431
   13  C  1 XY    0.001420  -0.002237  -0.000454   0.006989  -0.003357
   14  C  1 XZ   -0.005166  -0.002010  -0.000131   0.000407  -0.001821
   15  C  1 YZ    0.001408   0.002701  -0.001464  -0.002514  -0.000970
   16  C  2  S   -0.159996   0.058150  -0.095740  -0.009144  -0.031642
   17  C  2  S    0.313439  -0.118860   0.194442   0.016682   0.068758
   18  C  2  X   -0.083321  -0.171718   0.082129  -0.117755  -0.270258
   19  C  2  Y    0.023812  -0.122862  -0.167127  -0.232932   0.073156
   20  C  2  Z    0.018532   0.025097  -0.025709  -0.009205   0.058077
   21  C  2  S    0.204207  -0.104645   0.210589   0.013490   0.025497
   22  C  2  X    0.003335  -0.044293   0.035534  -0.058497  -0.055436
   23  C  2  Y   -0.014727  -0.021264  -0.043689  -0.090004   0.027998
   24  C  2  Z   -0.001930   0.007608  -0.009468  -0.003196   0.013631
   25  C  2 XX    0.004443   0.011539  -0.000208  -0.000163  -0.000255
   26  C  2 YY   -0.001160  -0.012931  -0.001744   0.001036  -0.010317
   27  C  2 ZZ   -0.014601   0.005163  -0.007417  -0.000799  -0.001405
   28  C  2 XY   -0.001296  -0.002166  -0.007048  -0.002270  -0.005202
   29  C  2 XZ   -0.004809  -0.001519  -0.002121  -0.000622  -0.000729
   30  C  2 YZ    0.001676  -0.001181   0.002337  -0.000384   0.000127
   31  C  3  S   -0.051008   0.115681   0.086145  -0.012735   0.051329
   32  C  3  S    0.100782  -0.245249  -0.182704   0.024945  -0.123628
   33  C  3  X   -0.111840   0.160331   0.115090  -0.003489  -0.137961
   34  C  3  Y   -0.072483   0.068641  -0.197983   0.322784   0.069546
   35  C  3  Z    0.005199  -0.002172  -0.013223  -0.003709   0.025969
   36  C  3  S    0.081561  -0.210519  -0.183565   0.064489  -0.105501
   37  C  3  X   -0.038823   0.054424   0.061892   0.005955  -0.040030
   38  C  3  Y   -0.013168   0.005993  -0.048879   0.096175   0.030514
   39  C  3  Z    0.002892  -0.000769  -0.005765  -0.003944   0.012617
   40  C  3 XX   -0.005949   0.014138   0.002816   0.001401   0.008863
   41  C  3 YY    0.010176  -0.011069   0.001414   0.004101   0.002328
   42  C  3 ZZ   -0.004336   0.008265   0.006678  -0.001956   0.004582
   43  C  3 XY    0.005035   0.003237   0.008818  -0.004262   0.007529
   44  C  3 XZ   -0.000202  -0.000300   0.000553  -0.000146  -0.000121
   45  C  3 YZ   -0.000227  -0.000779  -0.000092   0.000702  -0.001449
   46  O  4  S    0.039427  -0.067319  -0.036174   0.013728  -0.065809
   47  O  4  S   -0.091469   0.153945   0.083236  -0.023421   0.137444
   48  O  4  X    0.006034   0.057212   0.072869  -0.059430   0.257893
   49  O  4  Y   -0.013460   0.025097  -0.087252   0.191239   0.087746
   50  O  4  Z    0.000089  -0.000746  -0.006983  -0.001116   0.006571
   51  O  4  S   -0.079875   0.187266   0.103082  -0.078613   0.283067
   52  O  4  X   -0.005082   0.034208   0.041868  -0.019749   0.125494
   53  O  4  Y   -0.003408   0.013659  -0.043217   0.106544   0.050410
   54  O  4  Z   -0.000072  -0.000693  -0.003475  -0.000647   0.003948
   55  O  4 XX    0.000865  -0.009290  -0.008620   0.006266  -0.021999
   56  O  4 YY    0.000350  -0.001271   0.001885   0.000825  -0.003774
   57  O  4 ZZ   -0.000586   0.001064   0.000902   0.002490  -0.000052
   58  O  4 XY    0.001424  -0.002609   0.008230  -0.015717  -0.006675
   59  O  4 XZ   -0.000093   0.000307   0.000794   0.000090  -0.000365
   60  O  4 YZ   -0.000036   0.000018  -0.000223   0.000586  -0.000017
   61  H  5  S    0.074838   0.106175  -0.119964  -0.177896  -0.026166
   62  H  5  S    0.009811   0.036500  -0.065116  -0.122389  -0.021558
   63  H  6  S    0.071736   0.132120  -0.037268   0.077154  -0.189453
   64  H  6  S    0.014803   0.047617  -0.019846   0.056189  -0.134077
   65  H  7  S    0.075464  -0.045702   0.170063   0.076627  -0.091705
   66  H  7  S    0.002982  -0.009503   0.085118   0.049882  -0.071627
   67  H  8  S    0.033492  -0.104035  -0.179813   0.149477   0.017704
   68  H  8  S    0.004396  -0.029857  -0.095785   0.105357   0.020600

                     11         12         13         14         15
                   -0.4156    -0.3936    -0.3899    -0.2879    -0.2533
                     A          A          A          A          A   
    1  C  1  S    0.018774  -0.001993   0.010544   0.000359   0.009279
    2  C  1  S   -0.043303   0.003380  -0.021891  -0.001656  -0.015899
    3  C  1  X   -0.223548   0.032348  -0.068179   0.076962  -0.068147
    4  C  1  Y   -0.058835  -0.252190   0.175668  -0.036998  -0.022832
    5  C  1  Z    0.019343   0.031802   0.104461   0.366905   0.022267
    6  C  1  S   -0.067934   0.009611  -0.048701   0.000739  -0.119760
    7  C  1  X   -0.083230   0.015849  -0.028035   0.060677  -0.097098
    8  C  1  Y   -0.014334  -0.096881   0.067357  -0.023453  -0.014253
    9  C  1  Z    0.004559   0.022029   0.054632   0.267307   0.031280
   10  C  1 XX   -0.003436  -0.000225   0.002246   0.005016  -0.000486
   11  C  1 YY    0.010318   0.002142   0.001100  -0.000388   0.002254
   12  C  1 ZZ    0.000710  -0.002347  -0.000011  -0.004894   0.000702
   13  C  1 XY    0.000144   0.020430  -0.017614  -0.001002   0.008091
   14  C  1 XZ   -0.000631   0.006042   0.002878   0.014196   0.001461
   15  C  1 YZ    0.000618  -0.003113   0.004738   0.001461  -0.001274
   16  C  2  S    0.002249   0.011383  -0.009110   0.001383  -0.039589
   17  C  2  S   -0.008690  -0.020827   0.013835  -0.001082   0.076737
   18  C  2  X    0.221856  -0.020669   0.127430   0.065139   0.121100
   19  C  2  Y   -0.031435   0.170857  -0.191167  -0.034455   0.186311
   20  C  2  Z   -0.086966   0.132615   0.089134   0.355376  -0.002678
   21  C  2  S    0.027130  -0.042595   0.053996  -0.015158   0.335080
   22  C  2  X    0.034337  -0.002047   0.031595   0.043617  -0.014977
   23  C  2  Y    0.007088   0.059133  -0.071147  -0.020210   0.133405
   24  C  2  Z   -0.029934   0.070330   0.059133   0.239219   0.010020
   25  C  2 XX   -0.008423  -0.002878  -0.001275  -0.005488  -0.004954
   26  C  2 YY    0.013304  -0.000459   0.004153   0.000416   0.001595
   27  C  2 ZZ   -0.000686   0.001000   0.000206   0.005721  -0.001789
   28  C  2 XY   -0.007150   0.018716  -0.017423   0.001277   0.005870
   29  C  2 XZ    0.000604   0.003841  -0.000508  -0.015872  -0.000327
   30  C  2 YZ    0.000091   0.001786   0.009890  -0.000416  -0.000427
   31  C  3  S    0.016995  -0.017461   0.016336  -0.001108  -0.001368
   32  C  3  S   -0.051872   0.036071  -0.037091   0.001064   0.014709
   33  C  3  X   -0.311376  -0.112552   0.051401  -0.011682   0.000054
   34  C  3  Y    0.034829  -0.139381   0.129060   0.009810  -0.137027
   35  C  3  Z   -0.053339   0.240102   0.265723  -0.041821  -0.003461
   36  C  3  S    0.005162   0.069178  -0.047535   0.017081  -0.002699
   37  C  3  X   -0.028072  -0.032141   0.037587   0.006703   0.059782
   38  C  3  Y    0.003625  -0.053628   0.045874   0.005730   0.051095
   39  C  3  Z   -0.036237   0.133930   0.151945  -0.027935  -0.004065
   40  C  3 XX   -0.009848  -0.002252  -0.000469  -0.003696  -0.006914
   41  C  3 YY    0.019164   0.001288   0.004928   0.002600   0.003852
   42  C  3 ZZ    0.005594  -0.000091  -0.000579   0.001719   0.001371
   43  C  3 XY   -0.008846  -0.002625  -0.001854  -0.002164   0.048850
   44  C  3 XZ   -0.001786   0.013383   0.015126  -0.022736   0.001266
   45  C  3 YZ    0.002554  -0.002756  -0.001664  -0.011364  -0.001820
   46  O  4  S   -0.061052  -0.015783   0.004414   0.000766   0.000469
   47  O  4  S    0.122242   0.029241  -0.006861  -0.000403   0.006481
   48  O  4  X    0.425660   0.139741  -0.013143   0.006871  -0.026013
   49  O  4  Y    0.046222  -0.111868   0.100812   0.002866   0.584066
   50  O  4  Z   -0.081882   0.279067   0.328981  -0.274640   0.009859
   51  O  4  S    0.267275   0.082970  -0.034368  -0.012619  -0.042847
   52  O  4  X    0.228432   0.072935  -0.000600   0.007699  -0.009683
   53  O  4  Y    0.023748  -0.067529   0.059444   0.001329   0.416361
   54  O  4  Z   -0.047051   0.171048   0.200773  -0.198442   0.007170
   55  O  4 XX   -0.028209  -0.009596   0.000736   0.000550   0.004207
   56  O  4 YY   -0.000313  -0.000429   0.001097   0.001103  -0.000037
   57  O  4 ZZ   -0.000138   0.000653   0.001961  -0.000033   0.002524
   58  O  4 XY   -0.004488   0.007452  -0.007128  -0.000390  -0.018828
   59  O  4 XZ    0.005818  -0.018931  -0.022093   0.013757  -0.000350
   60  O  4 YZ    0.000625  -0.001953  -0.001500   0.000019   0.000526
   61  H  5  S    0.037793  -0.151721   0.134549  -0.001776  -0.015108
   62  H  5  S    0.045273  -0.140644   0.132526  -0.000095  -0.047429
   63  H  6  S    0.081477   0.149108  -0.100076   0.000820   0.043132
   64  H  6  S    0.082188   0.135496  -0.087368   0.003250   0.055042
   65  H  7  S    0.107662  -0.135290   0.158760   0.000443  -0.028560
   66  H  7  S    0.117294  -0.114305   0.139136   0.005667  -0.071711
   67  H  8  S    0.112894  -0.008006   0.040591   0.013366  -0.169499
   68  H  8  S    0.125078  -0.020507   0.053852   0.011995  -0.260415

                     16         17         18         19         20
                   -0.0601     0.0568     0.1104     0.1156     0.1529
                     A          A          A          A          A   
    1  C  1  S   -0.003485  -0.011985  -0.114819  -0.001491   0.056157
    2  C  1  S    0.009753   0.027181   0.181855  -0.001110  -0.084473
    3  C  1  X    0.080465  -0.046175  -0.204640   0.002977   0.048151
    4  C  1  Y   -0.029657   0.017415  -0.010204   0.255910  -0.164292
    5  C  1  Z    0.359753  -0.221914   0.045150   0.005254  -0.047797
    6  C  1  S    0.026660   0.115472   1.794484  -0.047256  -0.885143
    7  C  1  X    0.076166  -0.155216  -0.584532   0.044796   0.033403
    8  C  1  Y   -0.048234  -0.002489  -0.064680   0.649479  -0.491562
    9  C  1  Z    0.425669  -0.442902   0.138984   0.010362  -0.094286
   10  C  1 XX   -0.003813   0.008044   0.000323  -0.003701   0.008549
   11  C  1 YY   -0.000152  -0.001297  -0.014330   0.006625   0.002738
   12  C  1 ZZ    0.003907  -0.008627  -0.004528  -0.003645   0.000911
   13  C  1 XY   -0.000761  -0.005391  -0.006164   0.015751  -0.021148
   14  C  1 XZ   -0.011003   0.023671  -0.003623   0.004403  -0.001700
   15  C  1 YZ   -0.002935  -0.003017   0.001353  -0.002457   0.005245
   16  C  2  S   -0.000744  -0.006699  -0.000156   0.070825   0.015066
   17  C  2  S   -0.001749   0.003887  -0.015514  -0.109928  -0.021684
   18  C  2  X   -0.046487   0.090721   0.039520  -0.126382  -0.096312
   19  C  2  Y    0.013066  -0.046446  -0.067890   0.175325  -0.172347
   20  C  2  Z   -0.207022   0.398476  -0.040259   0.076373   0.026576
   21  C  2  S    0.022722   0.166482   0.342717  -1.076265  -0.165744
   22  C  2  X   -0.043167   0.155405   0.308178  -0.344496  -0.269192
   23  C  2  Y    0.015561  -0.037578  -0.028318   0.271750  -0.551413
   24  C  2  Z   -0.262925   0.629426  -0.094544   0.163336   0.071359
   25  C  2 XX   -0.006171   0.006708   0.003236  -0.001449  -0.016828
   26  C  2 YY   -0.000770  -0.002771  -0.004102   0.010267   0.021786
   27  C  2 ZZ    0.005528  -0.006126   0.000687   0.003099  -0.002320
   28  C  2 XY    0.001277   0.000009   0.002260  -0.024964   0.016906
   29  C  2 XZ   -0.022980   0.005644  -0.000417  -0.001521   0.004646
   30  C  2 YZ   -0.016416  -0.020167   0.001674   0.002592  -0.002483
   31  C  3  S   -0.001002   0.002808  -0.044346  -0.031382  -0.109578
   32  C  3  S   -0.000186   0.001044   0.082136   0.032932   0.179979
   33  C  3  X   -0.013588  -0.003576  -0.066910  -0.098196  -0.210261
   34  C  3  Y    0.009902  -0.000279   0.139117   0.143618   0.114358
   35  C  3  Z   -0.340360  -0.399425   0.049793  -0.034282  -0.014448
   36  C  3  S    0.012071  -0.089917   0.522388   0.590748   1.566852
   37  C  3  X   -0.021338   0.036124  -0.067961  -0.291939  -0.769705
   38  C  3  Y    0.011566   0.034823   0.501403   0.174853   0.199573
   39  C  3  Z   -0.316238  -0.564149   0.069485  -0.066218   0.012512
   40  C  3 XX    0.002484  -0.004985  -0.016381   0.015492  -0.012991
   41  C  3 YY   -0.002678   0.007026   0.006431  -0.016053  -0.016380
   42  C  3 ZZ   -0.001203  -0.000380   0.002756  -0.005896   0.003297
   43  C  3 XY    0.000377  -0.004114  -0.008152   0.005548  -0.004026
   44  C  3 XZ    0.026842   0.012931   0.000484  -0.001009   0.000891
   45  C  3 YZ    0.010529  -0.021359   0.002053  -0.003519  -0.001921
   46  O  4  S   -0.000964   0.003626   0.013874  -0.006042  -0.004120
   47  O  4  S    0.003812  -0.012363  -0.030492   0.004212  -0.018199
   48  O  4  X    0.009055   0.025803   0.071462  -0.027636   0.063112
   49  O  4  Y   -0.019132   0.010296  -0.048471  -0.030305  -0.040388
   50  O  4  Z    0.349134   0.244967  -0.028249   0.030399   0.004311
   51  O  4  S    0.004413  -0.025012  -0.134716   0.094518   0.202518
   52  O  4  X    0.009392   0.026424   0.103953  -0.025448   0.006665
   53  O  4  Y   -0.015885   0.001476  -0.120046  -0.077013  -0.079684
   54  O  4  Z    0.331415   0.310838  -0.036457   0.037638   0.008469
   55  O  4 XX    0.000589  -0.000696   0.000632  -0.005790   0.001604
   56  O  4 YY   -0.000083   0.000344   0.002529  -0.004535  -0.017381
   57  O  4 ZZ    0.000839  -0.001957   0.003865  -0.003076  -0.004518
   58  O  4 XY    0.000344   0.000458   0.001513  -0.004189  -0.001049
   59  O  4 XZ   -0.002268   0.004796  -0.000864   0.000560   0.000567
   60  O  4 YZ    0.001252  -0.004515   0.000274   0.000129  -0.000897
   61  H  5  S    0.005365   0.001671  -0.044224  -0.046142   0.109395
   62  H  5  S   -0.008688  -0.056811  -1.194667  -0.770760   1.124489
   63  H  6  S   -0.005868  -0.013521  -0.083105   0.048221  -0.048457
   64  H  6  S   -0.029865  -0.136954  -1.264627   0.864757  -0.234792
   65  H  7  S   -0.010937  -0.017464   0.009072   0.112258  -0.017371
   66  H  7  S   -0.035169  -0.116680  -0.274570   1.334443  -0.243113
   67  H  8  S   -0.003615   0.015103   0.007321  -0.051927  -0.089536
   68  H  8  S   -0.020443   0.083991  -0.768747  -0.790473  -1.542870

                     21         22         23         24         25
                    0.1920     0.2637     0.3146     0.3510     0.5084
                     A          A          A          A          A   
    1  C  1  S   -0.050210   0.017485   0.074933  -0.025300   0.002926
    2  C  1  S    0.077024   0.043735  -0.028945  -0.028712  -0.090132
    3  C  1  X   -0.002754   0.173078  -0.056960   0.121994  -0.278107
    4  C  1  Y   -0.288070   0.053563  -0.105618  -0.171306   0.045806
    5  C  1  Z   -0.023191  -0.051977   0.017081  -0.049002  -0.573006
    6  C  1  S    0.603591  -1.089822  -2.340971   2.191579  -0.188133
    7  C  1  X    0.195840  -0.286575  -2.291950   1.942871   0.126609
    8  C  1  Y   -1.207359  -0.415308  -0.863676  -0.694924  -0.032410
    9  C  1  Z   -0.142689   0.065987   0.357154  -0.472283   0.582535
   10  C  1 XX   -0.012709   0.003913   0.035049  -0.008129  -0.019284
   11  C  1 YY    0.005330  -0.014700  -0.034402   0.019716  -0.003461
   12  C  1 ZZ   -0.003325   0.008453   0.008217  -0.008030   0.010855
   13  C  1 XY    0.001865  -0.015656   0.027843   0.043353   0.009423
   14  C  1 XZ    0.002492  -0.002199  -0.003659   0.004843  -0.025845
   15  C  1 YZ    0.000023   0.003891  -0.011926  -0.005995   0.004696
   16  C  2  S    0.093204  -0.015691  -0.116078  -0.024726  -0.016424
   17  C  2  S   -0.149126  -0.059657   0.141888   0.090828  -0.029390
   18  C  2  X   -0.090505  -0.103748  -0.212071   0.210085  -0.013539
   19  C  2  Y    0.150705   0.063191   0.215544   0.225079   0.108752
   20  C  2  Z    0.033647   0.000590   0.062083  -0.024030  -0.427789
   21  C  2  S   -1.587462   1.196589   3.451438  -0.744124   0.185263
   22  C  2  X   -0.454810  -0.515815  -1.569423   2.801347  -0.341298
   23  C  2  Y    0.916035   1.148500   1.258654   1.441535  -0.128227
   24  C  2  Z    0.148415   0.106260   0.458646  -0.352385   0.252052
   25  C  2 XX    0.006388   0.017344  -0.003664   0.009858  -0.018101
   26  C  2 YY    0.006400  -0.034924   0.002443  -0.021419   0.002351
   27  C  2 ZZ   -0.000248  -0.002096  -0.003128   0.009300  -0.002245
   28  C  2 XY    0.023249   0.017907  -0.014678  -0.031481  -0.010464
   29  C  2 XZ    0.000422  -0.003588  -0.000429  -0.002052   0.033829
   30  C  2 YZ   -0.003898  -0.001694   0.001158  -0.000002  -0.017929
   31  C  3  S   -0.007364  -0.029886   0.073023   0.065774   0.009141
   32  C  3  S    0.033649  -0.006620  -0.026963  -0.067847  -0.082438
   33  C  3  X   -0.023444   0.157798  -0.038229   0.017620  -0.007856
   34  C  3  Y   -0.224064   0.103394   0.189654   0.458075   0.021421
   35  C  3  Z   -0.004371   0.003721   0.025014  -0.018236  -0.665005
   36  C  3  S   -0.259205   0.829445  -1.701249  -2.008177   0.270315
   37  C  3  X    0.268893   2.271441   0.336537  -0.722963   0.192316
   38  C  3  Y   -0.462806   0.687762   0.629536   1.725336  -0.032060
   39  C  3  Z   -0.039599  -0.078786  -0.098745   0.129038   0.686005
   40  C  3 XX    0.005696  -0.016527   0.024041  -0.011112   0.011618
   41  C  3 YY   -0.012518   0.009000   0.002464   0.028014  -0.008439
   42  C  3 ZZ    0.003471   0.018487  -0.011382  -0.015743  -0.003738
   43  C  3 XY    0.002001   0.000818   0.013276   0.003672   0.018404
   44  C  3 XZ   -0.000113   0.002043   0.001106  -0.002058  -0.007734
   45  C  3 YZ    0.000202   0.001760  -0.004963   0.004649   0.016582
   46  O  4  S    0.004852   0.107127  -0.033732  -0.033244   0.003603
   47  O  4  S   -0.009867  -0.101595   0.102747  -0.040663   0.024807
   48  O  4  X   -0.023014   0.166496  -0.118813  -0.035802  -0.027725
   49  O  4  Y    0.105375  -0.049781  -0.116213  -0.045903  -0.045291
   50  O  4  Z    0.010875  -0.006665  -0.002893   0.007578  -0.029515
   51  O  4  S   -0.103930  -2.118413   0.286268   1.005592  -0.208082
   52  O  4  X    0.009187   0.858322  -0.250208  -0.376519   0.074489
   53  O  4  Y    0.149897  -0.095125  -0.221113  -0.331428  -0.000260
   54  O  4  Z    0.008967  -0.034002   0.024494  -0.007493  -0.073069
   55  O  4 XX   -0.004586  -0.000604   0.011011  -0.017602   0.000996
   56  O  4 YY    0.002675   0.065851   0.002790  -0.025326   0.009399
   57  O  4 ZZ    0.000138   0.063351  -0.003059  -0.050595   0.011487
   58  O  4 XY    0.002423  -0.004744  -0.005902  -0.008636  -0.006412
   59  O  4 XZ    0.000055   0.002000  -0.003245   0.000962   0.045073
   60  O  4 YZ    0.000777   0.000614  -0.001997   0.002846   0.000963
   61  H  5  S   -0.009016   0.050215  -0.125225  -0.036655  -0.016744
   62  H  5  S    0.859623   0.545952   0.227559   1.159208  -0.019407
   63  H  6  S   -0.031161  -0.040870  -0.020205   0.189804  -0.002554
   64  H  6  S   -1.477199   0.138333  -0.856263  -0.300558  -0.031036
   65  H  7  S    0.017384  -0.101557   0.033808   0.031669  -0.020211
   66  H  7  S    1.689840   0.713367   0.870036  -0.187175   0.051072
   67  H  8  S   -0.027021  -0.066573   0.045050   0.041295  -0.045981
   68  H  8  S    0.604862   0.048514   0.146457  -1.167360   0.069284

                     26         27         28         29         30
                    0.5172     0.5585     0.5851     0.6201     0.6366
                     A          A          A          A          A   
    1  C  1  S   -0.008930   0.006057  -0.000794   0.034172   0.005990
    2  C  1  S    0.352424  -0.262587   0.024674   0.356081   0.011329
    3  C  1  X    0.560859  -0.070495   0.157562  -0.181164   0.041280
    4  C  1  Y   -0.003932  -0.306082  -0.060585  -0.135997  -0.066981
    5  C  1  Z   -0.270469   0.009371   0.701154  -0.034402   0.453498
    6  C  1  S    0.616283   0.079717  -0.002277  -0.821226  -0.107152
    7  C  1  X   -0.439901  -0.444475  -0.181466   0.585714  -0.070447
    8  C  1  Y    0.156978   0.752256   0.076641   0.275654   0.110203
    9  C  1  Z    0.256454   0.156330  -0.736710  -0.009731  -0.887340
   10  C  1 XX    0.038960  -0.001726   0.007830   0.053770  -0.001386
   11  C  1 YY    0.001831  -0.034903  -0.000401   0.104049   0.012373
   12  C  1 ZZ    0.004190  -0.001127  -0.006073  -0.049373  -0.000532
   13  C  1 XY    0.006124   0.060596   0.004875   0.026190  -0.003628
   14  C  1 XZ   -0.017689   0.012115   0.025028  -0.019501  -0.028220
   15  C  1 YZ   -0.000317  -0.015518   0.017919   0.011036  -0.014483
   16  C  2  S    0.069523  -0.004307   0.004584   0.015453  -0.002725
   17  C  2  S    0.180348  -0.382157   0.047835   0.359558  -0.019301
   18  C  2  X   -0.342705  -0.166136   0.033281  -0.087542  -0.217514
   19  C  2  Y   -0.295558  -0.489091   0.025324  -0.150037   0.006055
   20  C  2  Z   -0.082037   0.061484   0.120792   0.089157  -0.928340
   21  C  2  S   -0.583910   0.205739   0.013388  -0.068016   0.061379
   22  C  2  X    1.248418  -0.406532  -0.019247   0.062252   0.294526
   23  C  2  Y    0.230782   0.093394  -0.005208   0.603419   0.020400
   24  C  2  Z   -0.151946  -0.016780  -0.244849  -0.051022   1.513560
   25  C  2 XX    0.123376  -0.062696  -0.004896  -0.008171  -0.013240
   26  C  2 YY    0.022933  -0.053159   0.012198   0.149838   0.014311
   27  C  2 ZZ   -0.049925   0.017546   0.010048  -0.041525  -0.006394
   28  C  2 XY    0.013891  -0.057544   0.007822  -0.022683  -0.008811
   29  C  2 XZ   -0.028730   0.006318  -0.050442  -0.010563   0.004075
   30  C  2 YZ    0.001878   0.004208  -0.005258   0.024049  -0.029333
   31  C  3  S   -0.029508  -0.045694  -0.001016  -0.004079   0.000548
   32  C  3  S    0.309186  -0.471827   0.067472   0.046897  -0.045693
   33  C  3  X   -0.129423   0.227792  -0.033788  -0.175793  -0.073260
   34  C  3  Y   -0.169022   0.207345  -0.036538  -0.444134  -0.009521
   35  C  3  Z   -0.131912  -0.050488  -0.724363   0.029241   0.219583
   36  C  3  S   -0.973849   1.298042  -0.045760  -0.070571  -0.070579
   37  C  3  X   -0.641765  -0.032160   0.100786   0.442114   0.021692
   38  C  3  Y    0.003639  -0.728213   0.109123   1.223293   0.081888
   39  C  3  Z    0.230956   0.036840   1.015577  -0.046896  -0.664412
   40  C  3 XX   -0.022317  -0.022830   0.002534   0.048961   0.020962
   41  C  3 YY    0.012542  -0.154644   0.011911  -0.059703  -0.024321
   42  C  3 ZZ    0.015392   0.042798   0.000414   0.012211  -0.002068
   43  C  3 XY   -0.061454  -0.003885   0.003222   0.035225   0.005042
   44  C  3 XZ   -0.002151  -0.001414  -0.011060  -0.005420   0.025968
   45  C  3 YZ    0.015482  -0.007360   0.020888  -0.010293  -0.002053
   46  O  4  S   -0.018442   0.025430   0.001816   0.002638  -0.002545
   47  O  4  S   -0.055114  -0.122040  -0.007519   0.006235  -0.039321
   48  O  4  X    0.064169  -0.001923   0.006647  -0.064642  -0.039214
   49  O  4  Y    0.190236   0.044579  -0.019328  -0.240099   0.023001
   50  O  4  Z   -0.005641   0.003196  -0.100287   0.020127  -0.028443
   51  O  4  S    0.770828  -0.290428  -0.027935  -0.279952   0.070651
   52  O  4  X   -0.311509   0.278108   0.011562   0.090653  -0.009287
   53  O  4  Y    0.020379   0.149102  -0.012415  -0.084114  -0.019111
   54  O  4  Z   -0.021701  -0.011784  -0.089897  -0.008106   0.133162
   55  O  4 XX    0.002334  -0.025582   0.002525  -0.039827  -0.035542
   56  O  4 YY   -0.024813  -0.030537  -0.001170   0.005443  -0.006188
   57  O  4 ZZ   -0.043141   0.006482  -0.005466   0.018321  -0.008785
   58  O  4 XY    0.030285  -0.011013   0.001116   0.007441  -0.000137
   59  O  4 XZ    0.007314   0.004974   0.047738   0.001918  -0.019356
   60  O  4 YZ    0.002103   0.000151   0.009110  -0.000373  -0.026279
   61  H  5  S   -0.079230  -0.373308  -0.009583   0.218470   0.038806
   62  H  5  S   -0.197517  -0.362617  -0.009890   0.155775   0.020960
   63  H  6  S    0.035544   0.139608   0.003149   0.442414   0.050420
   64  H  6  S    0.072082   0.061973  -0.008124   0.230866   0.048792
   65  H  7  S    0.197765   0.118070   0.036731   0.445852   0.013109
   66  H  7  S   -0.213129  -0.073329  -0.003651   0.042373   0.024781
   67  H  8  S    0.207526  -0.343921   0.000371  -0.329260  -0.044728
   68  H  8  S   -0.126370   0.209585  -0.036727  -0.246340   0.016160

                     31         32         33         34         35
                    0.6636     0.6795     0.8097     0.8261     0.8544
                     A          A          A          A          A   
    1  C  1  S   -0.073193   0.040833   0.019940  -0.002295  -0.001761
    2  C  1  S   -0.203106   0.245736  -0.467189  -0.011483   0.235531
    3  C  1  X    0.416728  -0.136238  -0.043908   0.144947   0.022487
    4  C  1  Y    0.006192   0.001613  -0.067871  -0.983762  -0.414120
    5  C  1  Z   -0.068269   0.041729   0.016024  -0.118745  -0.046224
    6  C  1  S    0.575985  -0.881894   1.855288   0.056150  -0.410204
    7  C  1  X   -0.562325  -0.145257   0.570759  -0.304749  -0.150462
    8  C  1  Y   -0.049138   0.151013  -0.067057   2.689793   1.002935
    9  C  1  Z    0.055125  -0.000622  -0.175209   0.308069   0.129212
   10  C  1 XX   -0.150871   0.053087   0.017236  -0.000719   0.025908
   11  C  1 YY   -0.058706   0.067611  -0.025667  -0.004576  -0.002105
   12  C  1 ZZ    0.071514  -0.034445  -0.033105  -0.006000   0.015218
   13  C  1 XY    0.028831   0.049194  -0.008408  -0.082830  -0.072188
   14  C  1 XZ    0.054423  -0.021034  -0.009549  -0.008533  -0.010825
   15  C  1 YZ   -0.025753  -0.000795   0.001924   0.018411   0.010136
   16  C  2  S    0.053323  -0.014607  -0.026386   0.012255   0.002528
   17  C  2  S   -0.190295   0.360916  -0.525815   0.225914  -0.008478
   18  C  2  X    0.544408  -0.117371  -0.414587   0.083460  -0.017776
   19  C  2  Y    0.129420   0.216535   0.008639   0.327562   0.101416
   20  C  2  Z   -0.176909  -0.034944   0.059640   0.010415   0.003764
   21  C  2  S    0.524835  -0.806842   1.455334  -0.775027   0.173152
   22  C  2  X   -0.428863  -0.479828   2.329025  -0.305640   0.030746
   23  C  2  Y    0.160258  -0.772663   0.382478  -1.817599  -0.459149
   24  C  2  Z    0.273051   0.148110  -0.292323  -0.104715  -0.041983
   25  C  2 XX    0.093412   0.022241  -0.063521   0.023002   0.008739
   26  C  2 YY    0.024515  -0.016374  -0.055450  -0.000723  -0.005551
   27  C  2 ZZ   -0.053044   0.025046   0.012916   0.001032   0.000467
   28  C  2 XY   -0.005484  -0.016387   0.058434   0.052846   0.055214
   29  C  2 XZ   -0.033309   0.003360   0.025409  -0.001675   0.002113
   30  C  2 YZ    0.007188   0.005128  -0.019062  -0.008950  -0.014923
   31  C  3  S   -0.018199  -0.054735  -0.000652   0.034204  -0.045268
   32  C  3  S    0.251446   0.443321  -0.469806  -0.215921   0.115518
   33  C  3  X    0.228377   0.897414   0.299499   0.193159  -0.273806
   34  C  3  Y   -0.289552   0.185528  -0.689667  -0.034757   0.279555
   35  C  3  Z    0.054214  -0.017987  -0.024093   0.000575   0.008490
   36  C  3  S   -0.097645   0.640151  -0.378308   1.922595  -0.793513
   37  C  3  X   -0.188024  -0.844002  -1.377092  -0.141526   0.030536
   38  C  3  Y    0.963011  -0.796003   2.755848  -0.460412  -0.406863
   39  C  3  Z   -0.129091  -0.035319   0.137937  -0.011381   0.004164
   40  C  3 XX   -0.049435  -0.128835  -0.142820   0.112790  -0.186455
   41  C  3 YY    0.046463   0.091502   0.001489   0.025588   0.006753
   42  C  3 ZZ    0.016428   0.052596  -0.013584  -0.076861   0.097000
   43  C  3 XY    0.006235   0.012976  -0.088165   0.021616   0.074305
   44  C  3 XZ    0.005024   0.008717   0.005049  -0.013976   0.013299
   45  C  3 YZ   -0.000200  -0.004567   0.007702   0.000893  -0.001266
   46  O  4  S    0.009053   0.044703  -0.013436   0.007875  -0.004084
   47  O  4  S    0.004398  -0.133415   0.146910  -0.161562   0.378572
   48  O  4  X    0.150337   0.360401   0.279465  -0.266363   0.525100
   49  O  4  Y   -0.201325   0.029442  -0.006540  -0.013726  -0.026612
   50  O  4  Z    0.003330  -0.013149  -0.025426   0.034375  -0.033123
   51  O  4  S    0.003011   0.075638   0.560887  -0.138893  -0.310823
   52  O  4  X    0.019602   0.314313  -0.589116   0.598293  -0.924848
   53  O  4  Y   -0.082186   0.106015  -0.345949   0.071225  -0.034415
   54  O  4  Z    0.013067   0.001515   0.021722  -0.039193   0.045486
   55  O  4 XX    0.069351   0.165113   0.111637  -0.111460   0.211576
   56  O  4 YY   -0.009259  -0.060581   0.081692  -0.056485   0.126956
   57  O  4 ZZ   -0.008704  -0.048523   0.013220  -0.044080   0.125737
   58  O  4 XY    0.010847   0.000169   0.087208  -0.006265  -0.045645
   59  O  4 XZ   -0.008279  -0.009850  -0.002874   0.004112  -0.003981
   60  O  4 YZ   -0.004805  -0.002928   0.000147   0.000782   0.002544
   61  H  5  S   -0.460716   0.105283   0.162454   0.360768   0.210014
   62  H  5  S    0.045826  -0.017263  -0.112747  -1.792662  -0.763469
   63  H  6  S   -0.270704   0.292146   0.032318  -0.341594  -0.298450
   64  H  6  S   -0.210211  -0.094049  -0.149242   1.611329   0.890381
   65  H  7  S    0.326039   0.072648  -0.176299  -0.003206  -0.098777
   66  H  7  S    0.019592   0.013511  -0.582134  -0.474939  -0.110593
   67  H  8  S   -0.153150   0.031069   0.336763   0.217971  -0.590642
   68  H  8  S   -0.453565   0.127192  -2.177705  -0.347468   0.972297

                     36         37         38         39         40
                    0.8708     0.9057     0.9478     0.9851     1.0596
                     A          A          A          A          A   
    1  C  1  S    0.005709   0.029493  -0.001202  -0.001325   0.015582
    2  C  1  S   -0.006184  -0.198382   1.269357   0.224877   0.606742
    3  C  1  X   -0.011049   0.696006  -0.187624  -0.029756   0.074367
    4  C  1  Y   -0.063834   0.131754   0.030492   0.010037  -0.073907
    5  C  1  Z   -0.004483  -0.130004   0.060577  -0.057135  -0.016512
    6  C  1  S   -0.650598  -0.840310  -3.399148  -0.390043  -2.316048
    7  C  1  X   -0.186404  -1.977456  -0.204089   0.115281  -0.745248
    8  C  1  Y   -0.539964  -0.063409   0.093313  -0.259119   0.345005
    9  C  1  Z   -0.005603   0.399689   0.010574   0.029977   0.163353
   10  C  1 XX   -0.029576  -0.112409   0.080464   0.011772   0.002072
   11  C  1 YY    0.005381   0.169060   0.035271   0.003894   0.058314
   12  C  1 ZZ    0.008120  -0.095422   0.059499   0.017308   0.024500
   13  C  1 XY   -0.076168   0.008344   0.046774  -0.026726   0.011394
   14  C  1 XZ    0.000564   0.002250   0.002953  -0.006203   0.010453
   15  C  1 YZ    0.015476   0.028488  -0.006841  -0.026233   0.005222
   16  C  2  S   -0.035895   0.012849   0.015119  -0.004370  -0.028829
   17  C  2  S    0.523136  -0.098467   0.415631  -0.130601  -0.816797
   18  C  2  X    0.472677   0.459722   0.242847  -0.002809  -0.001862
   19  C  2  Y   -0.831514   0.115571   0.063541  -0.047622   0.011929
   20  C  2  Z   -0.156995  -0.078588  -0.055587   0.035688  -0.023345
   21  C  2  S   -0.276897   0.202875  -1.068437   0.488898   2.372232
   22  C  2  X   -1.093767  -2.344327  -1.587029   0.272666  -0.727438
   23  C  2  Y    2.648711  -1.035653  -0.934462   0.390043  -0.169549
   24  C  2  Z    0.432857   0.341561   0.240290   0.072912   0.133227
   25  C  2 XX    0.053036   0.078413   0.089890   0.001858  -0.021070
   26  C  2 YY   -0.026420  -0.072101  -0.052561  -0.011697  -0.131188
   27  C  2 ZZ    0.072419  -0.003607   0.006248  -0.012322   0.035583
   28  C  2 XY    0.130114  -0.033754  -0.033003  -0.001432   0.009386
   29  C  2 XZ    0.019381  -0.023242  -0.028451   0.021308   0.003872
   30  C  2 YZ   -0.034287   0.001709   0.011436  -0.046220  -0.014840
   31  C  3  S    0.014601  -0.018054  -0.017782   0.004871   0.010821
   32  C  3  S    0.299719  -0.803880  -1.187659   0.077655   0.365848
   33  C  3  X    0.068241   0.009965   0.128472   0.055648  -0.090574
   34  C  3  Y   -0.120722   0.174344  -0.039488  -0.017708   0.199421
   35  C  3  Z   -0.022398  -0.006322  -0.001416   0.098072  -0.006895
   36  C  3  S   -1.544487   2.580230   3.457564  -0.483647  -1.053967
   37  C  3  X    0.554196   0.005967  -0.319546  -0.189671   0.455992
   38  C  3  Y    0.748393  -1.513353  -0.859860   0.386058  -1.072551
   39  C  3  Z   -0.037136  -0.070731  -0.031281  -0.538119   0.008770
   40  C  3 XX   -0.026617  -0.064055  -0.098469   0.017939   0.042120
   41  C  3 YY    0.051980  -0.052562  -0.028828  -0.017942  -0.004895
   42  C  3 ZZ   -0.003716   0.005286  -0.022854   0.003210   0.008802
   43  C  3 XY   -0.057601   0.005985  -0.044310  -0.004494  -0.153338
   44  C  3 XZ    0.006101   0.008670   0.004584  -0.018044   0.008147
   45  C  3 YZ    0.007452  -0.006994   0.001088  -0.021791   0.008065
   46  O  4  S   -0.000017   0.001806   0.002424  -0.003093  -0.000380
   47  O  4  S    0.057516   0.197448   0.178787  -0.037325   0.017397
   48  O  4  X    0.026733  -0.000230   0.063884  -0.096774  -0.013428
   49  O  4  Y   -0.036293  -0.007297   0.006976  -0.033525  -0.719587
   50  O  4  Z    0.017871  -0.086081   0.015269  -0.920971   0.064165
   51  O  4  S   -0.085211  -0.725497  -0.728967   0.228914  -0.000382
   52  O  4  X   -0.042821   0.014109  -0.067377   0.115902  -0.010608
   53  O  4  Y   -0.091454   0.184819   0.119794  -0.018300   1.212610
   54  O  4  Z   -0.016926   0.104659  -0.012140   1.227495  -0.091365
   55  O  4 XX    0.053096   0.030197   0.013668  -0.003726   0.005799
   56  O  4 YY    0.012123   0.028642   0.033511  -0.013193   0.014028
   57  O  4 ZZ   -0.014952   0.123507   0.137336  -0.034832  -0.021557
   58  O  4 XY    0.001784  -0.020339   0.008529   0.002604   0.097601
   59  O  4 XZ   -0.002586   0.003629   0.003988   0.028843  -0.007105
   60  O  4 YZ    0.000333  -0.006156  -0.005704  -0.004384  -0.007115
   61  H  5  S    0.112794   0.514320  -0.386234   0.021748   0.019969
   62  H  5  S    0.042604  -1.084167   0.996864   0.242672  -0.001028
   63  H  6  S    0.008074   0.602927  -0.227823  -0.118369   0.119055
   64  H  6  S   -0.079205  -1.183532   0.776372   0.129373   0.337314
   65  H  7  S   -0.666248  -0.014700   0.000210  -0.024084  -0.159876
   66  H  7  S    2.553046   0.306269   0.303416   0.050534  -0.171204
   67  H  8  S    0.116140  -0.014298   0.303415  -0.067789   0.127552
   68  H  8  S   -0.168879   0.358340  -0.790911  -0.115794   0.770420

                     41         42         43         44         45
                    1.0835     1.1478     1.2452     1.3574     1.4351
                     A          A          A          A          A   
    1  C  1  S   -0.004219   0.025348   0.012788  -0.008792   0.004781
    2  C  1  S    0.332173   1.041707   0.231446  -0.054171   0.056261
    3  C  1  X    0.194885   0.107812  -0.119584   0.113719   0.011291
    4  C  1  Y    0.324865  -0.096285  -0.057005   0.057991   0.009829
    5  C  1  Z   -0.010993  -0.032011   0.058818   0.098816   0.090169
    6  C  1  S    1.091219  -4.163411  -2.839926   1.543727  -0.284404
    7  C  1  X    0.394450  -1.338856  -0.561429   0.380689  -0.152888
    8  C  1  Y   -2.040271   0.779415  -2.034120   0.549161  -0.266707
    9  C  1  Z   -0.327649   0.344015  -0.044061  -0.046028   0.015722
   10  C  1 XX    0.081447  -0.047498  -0.107018  -0.066854  -0.118776
   11  C  1 YY   -0.009308   0.128792   0.009754  -0.026866   0.056905
   12  C  1 ZZ   -0.023298   0.033428   0.125055   0.084381   0.065219
   13  C  1 XY   -0.134410   0.042389  -0.084589   0.065593  -0.030385
   14  C  1 XZ   -0.003414   0.021277  -0.071629  -0.332087  -0.355878
   15  C  1 YZ    0.023630  -0.002124   0.066924   0.092088  -0.260169
   16  C  2  S    0.003626  -0.044911  -0.029702   0.014013  -0.004638
   17  C  2  S   -0.058969  -1.290970  -0.742873   0.286748  -0.087211
   18  C  2  X   -0.109302   0.207777   0.161050  -0.085917   0.049950
   19  C  2  Y   -0.087597   0.033732  -0.312548   0.106949  -0.022821
   20  C  2  Z   -0.004058  -0.018985  -0.041104   0.043523   0.149615
   21  C  2  S   -0.135067   5.798763   3.064657  -1.356969   0.424845
   22  C  2  X    2.073671  -0.983229  -2.110697   1.385595  -0.090778
   23  C  2  Y    1.130338  -0.085495   3.594270  -1.344492   0.231830
   24  C  2  Z   -0.186064   0.170810   0.606549  -0.360711  -0.041507
   25  C  2 XX    0.004453  -0.023287  -0.016287   0.143340   0.150350
   26  C  2 YY   -0.038455  -0.092078  -0.029286  -0.045734   0.052969
   27  C  2 ZZ    0.002833  -0.002829   0.023186  -0.106133  -0.204214
   28  C  2 XY   -0.016129   0.064466  -0.087241   0.068140  -0.092743
   29  C  2 XZ   -0.044935   0.018007   0.126962   0.345767   0.362239
   30  C  2 YZ   -0.059190  -0.027468   0.162491   0.335358  -0.386224
   31  C  3  S   -0.000040   0.024288   0.025382  -0.010727  -0.007906
   32  C  3  S   -0.288012   0.527130   0.266015  -0.172517  -0.051756
   33  C  3  X    0.337825  -0.064810   0.097498  -0.009789   0.000812
   34  C  3  Y   -0.021288  -0.220501   0.131525  -0.054411   0.006363
   35  C  3  Z   -0.056937  -0.014144  -0.048652  -0.016204  -0.107938
   36  C  3  S   -0.231754  -1.421989  -2.135855   0.867875  -0.802818
   37  C  3  X   -1.652455   0.447840   2.173414  -1.247963  -0.530075
   38  C  3  Y    1.468406   1.729431   0.147833   0.243364   0.113391
   39  C  3  Z    0.315248   0.042393  -0.148223   0.045263   0.200254
   40  C  3 XX    0.055099   0.031289   0.025861  -0.022646  -0.008851
   41  C  3 YY   -0.176189   0.010209  -0.060574   0.043585   0.048602
   42  C  3 ZZ    0.045439  -0.009803   0.045287  -0.036775  -0.049489
   43  C  3 XY    0.071800   0.048445  -0.081775   0.004650  -0.023429
   44  C  3 XZ    0.036376   0.021026  -0.025987  -0.171483   0.362074
   45  C  3 YZ    0.056140  -0.006999  -0.212601  -0.437397   0.047318
   46  O  4  S   -0.008929   0.001277   0.033859  -0.017045  -0.026378
   47  O  4  S    0.102117   0.133964   0.335522  -0.083662  -0.451038
   48  O  4  X   -0.287733  -0.154129   0.077846  -0.085550   0.084566
   49  O  4  Y   -0.096335   0.418678   0.149985  -0.078533   0.004254
   50  O  4  Z    0.146735   0.066448   0.032936   0.042528  -0.018689
   51  O  4  S    0.594242  -0.193348  -1.552676   0.730211   1.403740
   52  O  4  X    0.398626   0.245953   0.233582  -0.039504  -0.477319
   53  O  4  Y   -0.130019  -0.952109  -0.150241   0.045170  -0.049532
   54  O  4  Z   -0.266392  -0.114975  -0.016553   0.051947  -0.158577
   55  O  4 XX    0.062073   0.074542   0.146057  -0.024228  -0.165310
   56  O  4 YY    0.003481   0.034603   0.066698   0.010856  -0.076003
   57  O  4 ZZ   -0.051131  -0.030870   0.129608  -0.102583  -0.106325
   58  O  4 XY   -0.020795  -0.068461   0.018616  -0.017566  -0.002365
   59  O  4 XZ   -0.030175  -0.017736   0.030738   0.132879  -0.241083
   60  O  4 YZ    0.015537  -0.006876  -0.072096  -0.127709  -0.006303
   61  H  5  S    0.366019  -0.131529   0.551837  -0.187695   0.053161
   62  H  5  S    0.650274   0.105491   0.801289  -0.229455   0.047930
   63  H  6  S   -0.484336   0.304508  -0.381928   0.078501  -0.046348
   64  H  6  S   -0.612992   0.609238  -0.270395   0.025307  -0.093014
   65  H  7  S   -0.077102  -0.324453   0.742551  -0.330584   0.043645
   66  H  7  S   -0.065764  -0.472704   1.264463  -0.611670   0.047832
   67  H  8  S   -0.585318  -0.119197   0.439495  -0.297981  -0.012132
   68  H  8  S   -0.720875  -0.341202   0.607913  -0.441474  -0.081181

                     46         47         48         49         50
                    1.5435     1.5469     1.6567     1.7629     1.7922
                     A          A          A          A          A   
    1  C  1  S    0.013750   0.000338   0.002123   0.006962   0.002046
    2  C  1  S    0.319441   0.010508   0.018826   0.058414  -0.029870
    3  C  1  X    0.034865   0.005569  -0.009261   0.084570  -0.061114
    4  C  1  Y    0.128761   0.039652  -0.009838  -0.007572  -0.122053
    5  C  1  Z   -0.020810  -0.072687   0.035468  -0.023732  -0.008477
    6  C  1  S   -1.105943   0.278316  -0.251697   0.864551  -0.288346
    7  C  1  X   -0.685134   0.034794  -0.115110   0.448853  -0.112946
    8  C  1  Y   -1.247108  -0.101425  -0.048571  -0.163659  -0.148259
    9  C  1  Z    0.034756   0.068220  -0.069844  -0.108502   0.029328
   10  C  1 XX    0.046988   0.094587  -0.074770   0.009273   0.068373
   11  C  1 YY    0.112983  -0.027220  -0.126922  -0.195323  -0.035935
   12  C  1 ZZ   -0.160226  -0.064612   0.198908   0.200778  -0.073973
   13  C  1 XY   -0.080242   0.020133   0.194046   0.079514   0.248869
   14  C  1 XZ    0.011828   0.213384  -0.193104   0.050792   0.038199
   15  C  1 YZ    0.018081   0.295174   0.785808  -0.013463  -0.038750
   16  C  2  S   -0.022949   0.001488  -0.002771  -0.000907  -0.018489
   17  C  2  S   -0.552009  -0.007429  -0.056797   0.156263   0.240888
   18  C  2  X    0.072768  -0.028510   0.018227   0.018039   0.211306
   19  C  2  Y   -0.111049   0.002283  -0.014159   0.170784   0.156120
   20  C  2  Z   -0.043851  -0.036249   0.026044   0.011239  -0.027527
   21  C  2  S    2.233405  -0.047115   0.259010   0.112756   0.365532
   22  C  2  X    0.009689   0.361480  -0.146588   1.464555  -0.339462
   23  C  2  Y    1.044301  -0.076445   0.086620  -0.060701  -0.135461
   24  C  2  Z    0.162401  -0.143972   0.241657  -0.230654   0.043341
   25  C  2 XX    0.034623  -0.054391   0.055365   0.014606   0.154024
   26  C  2 YY    0.044021  -0.020165  -0.012922  -0.288851  -0.203178
   27  C  2 ZZ   -0.092445   0.063737  -0.040388   0.340687   0.037177
   28  C  2 XY    0.047731   0.098477  -0.009210  -0.108944  -0.295851
   29  C  2 XZ   -0.082355  -0.167274   0.114763   0.070225  -0.062493
   30  C  2 YZ    0.046934   0.201077   0.008740  -0.042358   0.033067
   31  C  3  S   -0.017289  -0.006483  -0.000979   0.013007  -0.017951
   32  C  3  S   -0.108780  -0.060941   0.012328   0.384772   0.150837
   33  C  3  X    0.058721  -0.003251   0.001543  -0.101174  -0.110379
   34  C  3  Y   -0.008188  -0.009852  -0.003483  -0.277016   0.016843
   35  C  3  Z    0.045910  -0.150859   0.031425   0.004411   0.003646
   36  C  3  S   -3.351225  -0.647514  -0.178603  -2.386808  -0.051078
   37  C  3  X   -2.124314  -0.815803  -0.041947  -1.564322  -0.195607
   38  C  3  Y    0.710597   0.147412   0.022333   1.182609   0.737952
   39  C  3  Z    0.080862   0.145676  -0.192408   0.137893   0.020766
   40  C  3 XX   -0.158420  -0.028098   0.001628  -0.103671   0.085857
   41  C  3 YY    0.193817   0.086968   0.000515  -0.296590   0.005436
   42  C  3 ZZ   -0.073154  -0.070653  -0.004194   0.462329  -0.062167
   43  C  3 XY    0.023067  -0.002443   0.008675  -0.037381  -0.471186
   44  C  3 XZ   -0.224118   0.460795   0.055258  -0.000298  -0.017073
   45  C  3 YZ    0.067219  -0.362985   0.336950  -0.051769   0.019123
   46  O  4  S   -0.088844  -0.026411  -0.003243  -0.045294  -0.005231
   47  O  4  S   -1.544421  -0.431655  -0.065674  -0.790086  -0.124684
   48  O  4  X    0.238537   0.041596   0.012113   0.034073   0.019895
   49  O  4  Y    0.001549  -0.013477   0.005046   0.042189   0.253152
   50  O  4  Z    0.052254  -0.097247  -0.043222   0.013172   0.004147
   51  O  4  S    5.042329   1.487357   0.190881   2.960949   0.349947
   52  O  4  X   -1.630831  -0.455076  -0.065432  -0.868685  -0.092323
   53  O  4  Y   -0.241913  -0.039518  -0.019627  -0.289683  -0.432501
   54  O  4  Z    0.056795  -0.049035   0.080210   0.002343  -0.004877
   55  O  4 XX   -0.487770  -0.165729  -0.024996  -0.250844  -0.081170
   56  O  4 YY   -0.134537  -0.014779  -0.013589  -0.616473   0.283197
   57  O  4 ZZ   -0.479333  -0.128750  -0.004299   0.392087  -0.280307
   58  O  4 XY   -0.118323  -0.044389   0.002614  -0.003226   0.459925
   59  O  4 XZ    0.173964  -0.364499  -0.063744   0.061967  -0.002335
   60  O  4 YZ    0.054894  -0.256532   0.329310  -0.085358  -0.019603
   61  H  5  S    0.180926  -0.013629   0.019485   0.203009   0.259340
   62  H  5  S    0.277032  -0.020363   0.012034   0.042465  -0.066702
   63  H  6  S   -0.199402  -0.023292  -0.008601   0.002882  -0.190549
   64  H  6  S   -0.480863  -0.072055  -0.009338  -0.018255  -0.023273
   65  H  7  S    0.025261  -0.024396   0.026247  -0.138619  -0.145585
   66  H  7  S    0.115222  -0.112193   0.050905  -0.304256   0.092306
   67  H  8  S   -0.064128  -0.057499  -0.004121   0.005808  -0.553755
   68  H  8  S   -0.330095  -0.155493   0.016012  -0.459856  -0.115688

                     51         52         53         54         55
                    1.8437     1.9080     1.9874     2.0418     2.1347
                     A          A          A          A          A   
    1  C  1  S    0.002323   0.023780  -0.017627   0.015050   0.011358
    2  C  1  S    0.023333   0.068175  -0.209729   0.312768   0.094746
    3  C  1  X    0.015015  -0.018145  -0.244578   0.232300   0.035926
    4  C  1  Y    0.007678   0.118835   0.096758   0.115875  -0.000257
    5  C  1  Z    0.007149   0.013520   0.057078  -0.034994   0.010953
    6  C  1  S    0.028905  -0.764877  -0.129180   0.130355  -0.529387
    7  C  1  X    0.022590  -0.041293   0.005155  -0.227909   0.046973
    8  C  1  Y   -0.055898   0.236369  -0.383316   0.069145   0.084443
    9  C  1  Z   -0.055214   0.028127  -0.028639   0.096504   0.173567
   10  C  1 XX    0.014133   0.048453   0.216183  -0.341554   0.299663
   11  C  1 YY    0.017641  -0.457122   0.045765   0.347426  -0.506215
   12  C  1 ZZ   -0.027514   0.421541  -0.389036   0.150109   0.170370
   13  C  1 XY   -0.071144  -0.268940  -0.278078  -0.403875   0.063061
   14  C  1 XZ    0.028615   0.054173  -0.138224   0.176935   0.399154
   15  C  1 YZ   -0.321269  -0.032948   0.100862   0.167392   0.074154
   16  C  2  S    0.002314   0.024890  -0.034213   0.004667  -0.000705
   17  C  2  S    0.013798   0.181572  -0.449460   0.323572  -0.163997
   18  C  2  X   -0.011882  -0.026313   0.066674  -0.141129   0.077622
   19  C  2  Y    0.021730   0.128024   0.047289   0.193106  -0.061340
   20  C  2  Z   -0.056933   0.019658  -0.017792   0.033464  -0.087840
   21  C  2  S   -0.016919  -0.801280   1.605173   0.229478  -0.028129
   22  C  2  X    0.142804  -0.824648  -0.118771   0.858372  -0.435998
   23  C  2  Y   -0.002606  -0.272704   1.114080   0.077461  -0.318199
   24  C  2  Z    0.128769   0.134298   0.141457  -0.227373  -0.279469
   25  C  2 XX    0.003420   0.033972   0.298490  -0.439209   0.149552
   26  C  2 YY   -0.127930  -0.442260  -0.120475   0.415182   0.077881
   27  C  2 ZZ    0.132343   0.393527  -0.247235   0.158016  -0.285732
   28  C  2 XY    0.093824   0.394788   0.354844   0.143137  -0.176770
[...]

          ATOMIC WEIGHTS (AMU)

    1     C                12.00000
    2     C                12.00000
    3     C                12.00000
    4     O                15.99491
    5     H                 1.00782
    6     H                 1.00782
    7     H                 1.00782
    8     H                 1.00782

 MODES    1 TO    6 ARE TAKEN AS ROTATIONS AND TRANSLATIONS.

 ANALYZING SYMMETRY OF NORMAL MODES...

     FREQUENCIES IN CM**-1, IR INTENSITIES IN DEBYE**2/AMU-ANGSTROM**2,
     REDUCED MASSES IN AMU.

                            1           2           3           4           5
       FREQUENCY:         4.42        0.16        0.07        0.10        3.22  
        SYMMETRY:         A           A           A           A           A   
    REDUCED MASS:      5.50008     7.24642     6.99581     7.12447     4.59706
    IR INTENSITY:      0.09971     0.00021     0.00000     0.00005     0.08336

  1   C            X -0.02907717  0.03603102  0.11833279 -0.05331970 -0.06509322
                   Y  0.01629716  0.12131622 -0.02535374  0.02299325  0.15931111
                   Z -0.18013026 -0.01091399  0.05708969  0.11658583  0.02602694
  2   C            X -0.00701052  0.03578095  0.11828682 -0.05283677 -0.06069257
                   Y  0.00340068  0.12739342 -0.02557155  0.02268722  0.03829838
                   Z -0.04526698 -0.01043490  0.05665562  0.11956040  0.01218390
  3   C            X  0.01053918  0.02990353  0.11844429 -0.05236957  0.05585042
                   Y -0.00417957  0.13056916 -0.02566305  0.02248187 -0.02470472
                   Z  0.03911649 -0.00942723  0.05616602  0.12175273 -0.01214201
  4   O            X  0.02976732  0.02936702  0.11840259 -0.05194248  0.06599725
                   Y -0.01569830  0.13609120 -0.02586015  0.02220357 -0.13462609
                   Z  0.16120901 -0.00893746  0.05576252  0.12445174 -0.02582476
  5   H            X -0.03439563  0.03193193  0.11849367 -0.05338240  0.01674249
                   Y  0.02147528  0.11855602 -0.02524099  0.02309964  0.21433811
                   Z -0.23087120 -0.01058524  0.05709713  0.11571172  0.01998329
  6   H            X -0.04253440  0.04027994  0.11821040 -0.05367006 -0.14927384
                   Y  0.02220966  0.11889157 -0.02528297  0.02314976  0.20741540
                   Z -0.24433963 -0.01164140  0.05744816  0.11492502  0.04365885
  7   H            X -0.00126076  0.03982020  0.11810203 -0.05276010 -0.14150307
                   Y -0.00195348  0.13025930 -0.02569026  0.02257549 -0.01890989
                   Z  0.00773569 -0.01075180  0.05663989  0.12048291  0.01794951
  8   H            X  0.00483838  0.02584854  0.11860038 -0.05243764  0.13681486
                   Y  0.00155973  0.12747866 -0.02554804  0.02260931  0.03682816
                   Z -0.01808777 -0.00912954  0.05618483  0.12074050 -0.01747252

 TRANS. SAYVETZ    X  0.09561713  1.82926846  6.63171639 -2.94703889  0.07810229
                   Y -0.02124373  7.22717237 -1.43524936  1.26524190  0.36463722
                   Z -0.14620779 -0.55470482  3.16000161  6.76093436 -0.03561789
               TOTAL  0.17598480  7.47569000  7.48499921  7.48305477  0.37460500

   ROT. SAYVETZ    X  8.43817173  0.15793658 -0.04124555  0.20096902 -3.49173390
                   Y-17.40758653 -0.06341835  0.06658439 -0.40219614  1.90124517
                   Z -3.16914399  1.02061804 -0.03084376 -0.07777707-20.26589304
               TOTAL 19.60281317  1.03471108  0.08417846  0.45628890 20.65219988

                            6           7           8           9          10
       FREQUENCY:        20.89      174.53      321.79      572.51      612.03  
        SYMMETRY:         A           A           A           A           A   
    REDUCED MASS:      1.63484     3.46826     2.70121     4.90150     1.18049
    IR INTENSITY:      0.01740     0.09465     0.22138     0.13664     0.17474

  1   C            X -0.00439918  0.01678002 -0.02663195 -0.11851322 -0.00134326
                   Y  0.00263731 -0.00600650 -0.10639549 -0.05197452 -0.00205438
                   Z -0.02284793  0.10183596 -0.00244601  0.01532245  0.01377924
  2   C            X  0.02199895 -0.01994276 -0.03719528 -0.09175431 -0.02021728
                   Y -0.00917264  0.00779427  0.13388008 -0.02883997  0.00598390
                   Z  0.13977555 -0.12505254  0.01462613  0.01551363 -0.10898095
  3   C            X -0.01803788 -0.02034608  0.00740289  0.10459747  0.00731104
                   Y  0.00670033  0.00802415  0.10676431 -0.03988250 -0.00301977
                   Z -0.11700814 -0.13044856  0.00485870 -0.01988302  0.02637773
  4   O            X  0.00165212  0.01822746  0.03312521  0.10342017  0.00314787
                   Y -0.00080729 -0.00769881 -0.09513437  0.11547188  0.00339602
                   Z  0.01122949  0.12027770 -0.01089971 -0.00882772 -0.00094352
  5   H            X -0.05609226  0.03165975 -0.23953536 -0.20869125 -0.08146931
                   Y  0.02403338 -0.01128950 -0.25198031 -0.11521370  0.02623542
                   Z -0.34709808  0.18997191  0.02131806  0.04091142 -0.46007280
  6   H            X  0.02412473  0.03669142  0.19534597 -0.03610353  0.09420023
                   Y -0.00867366 -0.01391005 -0.23456462 -0.10288967 -0.04102959
                   Z  0.15890706  0.22825285 -0.04531314 -0.01849845  0.58529285
  7   H            X  0.07341306 -0.02841717  0.05706113 -0.21355667  0.04423381
                   Y -0.03051330  0.01067271  0.19876913 -0.11816826 -0.02429215
                   Z  0.46330104 -0.17475089  0.00509601  0.01565496  0.31584552
  8   H            X -0.06900610 -0.04939136  0.13331912  0.07512407  0.06281608
                   Y  0.02637425  0.01987618  0.19914154 -0.05930481 -0.02563237
                   Z -0.44755122 -0.32254990 -0.01102747 -0.02836140  0.39342750

 TRANS. SAYVETZ    X -0.00660819 -0.00009070  0.00007754 -0.00007040  0.00007407
                   Y  0.00037585 -0.00000749 -0.00000661 -0.00007328  0.00001094
                   Z  0.00485779  0.00015449 -0.00003474  0.00002070  0.00004389
               TOTAL  0.00821021  0.00017930  0.00008522  0.00010371  0.00008679

   ROT. SAYVETZ    X -6.47111984  0.00369722  0.01885829  0.00035147 -0.01284357
                   Y -0.77520087 -0.03049933 -0.01302852 -0.00101665  0.00099874
                   Z  0.87999905 -0.01297682  0.02452517  0.00235306 -0.00261747
               TOTAL  6.57652847  0.03335081  0.03356876  0.00258727  0.01314557

                           11          12          13          14          15
       FREQUENCY:       929.73      992.67     1022.85     1043.81     1179.83  
        SYMMETRY:         A           A           A           A           A   
    REDUCED MASS:      1.57922     1.33995     1.63993     1.16922     2.00711
    IR INTENSITY:      0.51118     0.83944     0.19287     0.20046     0.86836

  1   C            X  0.04267733 -0.02290697 -0.00468379 -0.00150973  0.02593891
                   Y  0.09751645  0.00892085  0.00145653  0.00034638  0.04173516
                   Z -0.00092731 -0.14095146 -0.02734017 -0.00764135 -0.00162797
  2   C            X  0.02003342  0.00530428  0.01845026 -0.00328103  0.01240421
                   Y  0.07199750 -0.00203212 -0.00781298  0.00142385 -0.13183496
                   Z  0.00192781  0.03267299  0.11464335 -0.02040580 -0.01040769
  3   C            X -0.00857322  0.00450506 -0.02103154 -0.01614700 -0.00700744
                   Y -0.12050756 -0.00182014  0.00928329  0.00647417  0.15553742
                   Z -0.00658655  0.02933970 -0.13643451 -0.10490382  0.01120177
  4   O            X -0.03081273 -0.00120703  0.00529135  0.00362394 -0.00299050
                   Y  0.00435781  0.00051045 -0.00223695 -0.00140730 -0.02500893
                   Z  0.00517636 -0.00817407  0.03384339  0.02329228 -0.00119078
  5   H            X -0.37330939  0.09252696 -0.02058108  0.07008693 -0.15101418
                   Y -0.19552426 -0.03572732  0.00870277 -0.02793060 -0.08386903
                   Z  0.04896539  0.56464603 -0.13053599  0.43352050  0.02038566
  6   H            X  0.52925200  0.09800248  0.02268129 -0.04375468  0.19444333
                   Y -0.17951075 -0.03948529 -0.00930310  0.01730435 -0.05772083
                   Z -0.09675383  0.61008281  0.15078170 -0.26763229 -0.03554386
  7   H            X -0.20872842  0.00096579 -0.08039502  0.09622450 -0.39808692
                   Y -0.08585575  0.00040384  0.03115461 -0.03826684 -0.42916853
                   Z  0.02603884  0.00183227 -0.49560379  0.59645654  0.03826718
  8   H            X -0.10274142 -0.01638793  0.08082379  0.06924532  0.02885509
                   Y -0.19178042  0.00635148 -0.02990049 -0.02693899  0.18846917
                   Z  0.00607963 -0.10690859  0.52324474  0.45104076  0.00572095

 TRANS. SAYVETZ    X  0.00005930 -0.00000046  0.00000252  0.00001426 -0.00015653
                   Y  0.00000108 -0.00000526  0.00000113 -0.00000241 -0.00004476
                   Z -0.00002982  0.00001381  0.00000729  0.00002661  0.00000260
               TOTAL  0.00006638  0.00001478  0.00000780  0.00003028  0.00016283

   ROT. SAYVETZ    X  0.00039500  0.00297333 -0.00052917  0.00194408  0.00033144
                   Y -0.00079736  0.00246639  0.00155598  0.00069824 -0.00062448
                   Z  0.00597029 -0.00027479 -0.00095373  0.00101135  0.00150405
               TOTAL  0.00603624  0.00387289  0.00190018  0.00229996  0.00166193

                           16          17          18          19          20
       FREQUENCY:      1308.72     1409.80     1474.72     1700.72     1803.85  
        SYMMETRY:         A           A           A           A           A   
    REDUCED MASS:      1.48103     1.19598     1.22537     4.00888     9.43274
    IR INTENSITY:      0.05505     0.13906     0.23610     0.05566     5.00032

  1   C            X -0.07216814  0.02385037 -0.02223282 -0.17684055  0.01113875
                   Y  0.08411196  0.00974953  0.01121560 -0.01634850 -0.00153160
                   Z  0.01705158 -0.00322874  0.00435359  0.02764763 -0.00193266
  2   C            X  0.03336750 -0.07141756 -0.08920541  0.17784472 -0.03480420
                   Y -0.12098450 -0.02963004 -0.03861773  0.03739083 -0.00806587
                   Z -0.01313275  0.00973808  0.01186512 -0.02630386  0.00501222
  3   C            X -0.00618398  0.00021002 -0.00401173  0.01930915  0.21811852
                   Y  0.01904815 -0.05989232  0.04900370 -0.00223091  0.04121533
                   Z  0.00210110 -0.00369019  0.00346893 -0.00299067 -0.03110124
  4   O            X  0.01064159 -0.04441858  0.04867247 -0.03418008 -0.14467949
                   Y  0.00226714  0.02933604 -0.01125159 -0.00711730 -0.01776114
                   Z -0.00150541  0.00859911 -0.00814115  0.00480669  0.02116633
  5   H            X -0.40063386  0.26232513  0.39735018  0.16497713 -0.01345859
                   Y -0.13707478  0.15546815  0.28455932  0.23588743 -0.01526399
                   Z  0.05652902 -0.03257293 -0.04622884 -0.01187715  0.00112115
  6   H            X  0.09977258  0.31547133  0.47618376  0.13089024 -0.00582463
                   Y -0.02520527 -0.14369826 -0.25686261 -0.21412474  0.00895009
                   Z -0.01804896 -0.06040096 -0.09386850 -0.03529238  0.00182907
  7   H            X  0.60355918  0.04192790  0.13772419 -0.06070765  0.06498487
                   Y  0.27080498  0.05655635  0.12540977 -0.16055879  0.05523589
                   Z -0.08026785 -0.00282837 -0.01427966 -0.00078910 -0.00679300
  8   H            X  0.06400208  0.64924960 -0.40900200  0.06522935 -0.06488279
                   Y  0.06769567  0.41594471 -0.23176884  0.02774488 -0.14345641
                   Z -0.00598092 -0.07423040  0.04918678 -0.00872172  0.00152396

 TRANS. SAYVETZ    X -0.00003475  0.00014655  0.00008097 -0.00020789 -0.00002974
                   Y -0.00003043  0.00001378 -0.00002721 -0.00002365  0.00005223
                   Z  0.00001789  0.00000867  0.00002133 -0.00000410 -0.00004357
               TOTAL  0.00004953  0.00014745  0.00008805  0.00020927  0.00007424

   ROT. SAYVETZ    X  0.00078144  0.00021381 -0.00032867 -0.00034679  0.00022253
                   Y -0.00075238 -0.00131381 -0.00050310 -0.00088887 -0.00019883
                   Z  0.00240928 -0.00081275 -0.00011870 -0.00111050  0.00050627
               TOTAL  0.00264222  0.00155961  0.00061256  0.00146409  0.00058767

                           21          22          23          24
       FREQUENCY:      2897.78     3157.54     3194.87     3246.73  
        SYMMETRY:         A           A           A           A   
    REDUCED MASS:      1.08409     1.06026     1.09398     1.11480
    IR INTENSITY:      2.51775     0.14747     0.06623     0.18772

  1   C            X -0.00119143  0.06391137 -0.01000347 -0.01233566
                   Y  0.00004875 -0.01494467  0.01732969 -0.09114781
                   Z  0.00019417 -0.01128907  0.00274126 -0.00390428
  2   C            X  0.00221296 -0.00165777  0.04878076  0.01052687
                   Y  0.00165988 -0.00759912 -0.06498124 -0.01170403
                   Z -0.00024380 -0.00021861 -0.01205356 -0.00245379
  3   C            X  0.04235236 -0.00040250  0.00245011  0.00042499
                   Y -0.06694179 -0.00151094  0.00131468  0.00017492
                   Z -0.01052958 -0.00002768 -0.00029481 -0.00005462
  4   O            X  0.00172226  0.00048373 -0.00088622 -0.00012184
                   Y  0.00083926  0.00024973 -0.00020501 -0.00000839
                   Z -0.00021168 -0.00005927  0.00012232  0.00001765
  5   H            X  0.00074867 -0.43017625  0.08978572 -0.27814313
                   Y -0.01222379  0.66378641 -0.13786655  0.40678140
                   Z -0.00087191  0.11240821 -0.02340937  0.07122980
  6   H            X -0.00339602 -0.25361411 -0.03995174  0.38746720
                   Y  0.00552271 -0.47499928 -0.07261061  0.68134544
                   Z  0.00089979  0.01019017  0.00172581 -0.01845240
  7   H            X  0.00390883 -0.05601537 -0.52413765 -0.09122552
                   Y -0.00561216  0.08267359  0.76149385  0.12963905
                   Z -0.00096621  0.01436361  0.13352264  0.02307223
  8   H            X -0.54503801 -0.00438583 -0.00256405  0.00031841
                   Y  0.77573176  0.01100250  0.00396299  0.00492237
                   Z  0.13025161  0.00131574  0.00060622  0.00022564

 TRANS. SAYVETZ    X  0.00000244 -0.00006438 -0.00004552  0.00000664
                   Y  0.00001814  0.00001112  0.00000094 -0.00000135
                   Z -0.00001099 -0.00001258 -0.00000377  0.00000055
               TOTAL  0.00002135  0.00006654  0.00004569  0.00000679

   ROT. SAYVETZ    X  0.00028387 -0.00001313 -0.00000112  0.00023888
                   Y  0.00014570  0.00005925  0.00002281 -0.00005953
                   Z -0.00025801  0.00025747 -0.00032761  0.00025132
               TOTAL  0.00041034  0.00026452  0.00032841  0.00035181

 REFERENCE ON SAYVETZ CONDITIONS - A. SAYVETZ, J.CHEM.PHYS., 7, 383-389(1939).

 NOTE - THE MODES J,K ARE ORTHONORMALIZED ACCORDING TO
 SUM ON I   M(I) * (X(I,J)*X(I,K) + Y(I,J)*Y(I,K) + Z(I,J)*Z(I,K)) = DELTA(J,K)

  MODE FREQ(CM**-1)  SYMMETRY  RED. MASS  IR INTENS.
     1       4.419    A        5.500077    0.099710
     2       0.164    A        7.246419    0.000208
     3       0.065    A        6.995812    0.000003
     4       0.097    A        7.124474    0.000052
     5       3.219    A        4.597061    0.083360
     6      20.893    A        1.634837    0.017397
     7     174.529    A        3.468263    0.094651
     8     321.793    A        2.701214    0.221376
     9     572.512    A        4.901504    0.136642
    10     612.025    A        1.180486    0.174735
    11     929.731    A        1.579220    0.511184
    12     992.673    A        1.339953    0.839438
    13    1022.848    A        1.639933    0.192872
    14    1043.808    A        1.169221    0.200461
    15    1179.829    A        2.007107    0.868365
    16    1308.719    A        1.481025    0.055052
    17    1409.805    A        1.195985    0.139063
    18    1474.716    A        1.225374    0.236098
    19    1700.718    A        4.008880    0.055664
    20    1803.854    A        9.432739    5.000321
    21    2897.782    A        1.084091    2.517746
    22    3157.536    A        1.060257    0.147474
    23    3194.869    A        1.093977    0.066229
    24    3246.731    A        1.114795    0.187723

     -------------------------------
     THERMOCHEMISTRY AT T=  298.15 K
     -------------------------------

 USING IDEAL GAS, RIGID ROTOR, HARMONIC NORMAL MODE APPROXIMATIONS.
 P=  1.01325E+05 PASCAL.
 ALL FREQUENCIES ARE SCALED BY   1.00000
 THE MOMENTS OF INERTIA ARE (IN AMU*BOHR**2)
             37.65982           390.00318           427.65978
 THE ROTATIONAL SYMMETRY NUMBER IS  1.0
 THE ROTATIONAL CONSTANTS ARE (IN GHZ)
     47.87831     4.62327     4.21617
      7 -     24 VIBRATIONAL MODES ARE USED IN THERMOCHEMISTRY.
 THE HARMONIC ZERO POINT ENERGY IS (SCALED BY   1.000)
        0.061612 HARTREE/MOLECULE    13522.239089 CM**-1/MOLECULE 
       38.662060 KCAL/MOL              161.762061 KJ/MOL

               Q               LN Q
 ELEC.     1.00000E+00       0.000000
 TRANS.    1.64832E+07      16.617850
 ROT.      2.83703E+04      10.253098
 VIB.      2.61413E+00       0.960932
 TOT.      1.22245E+12      27.831880

              E         H         G         CV        CP        S
           KJ/MOL    KJ/MOL    KJ/MOL   J/MOL-K   J/MOL-K   J/MOL-K
 ELEC.      0.000     0.000     0.000     0.000     0.000     0.000
 TRANS.     3.718     6.197   -41.195    12.472    20.786   158.954
 ROT.       3.718     3.718   -25.417    12.472    12.472    97.720
 VIB.     165.754   165.754   159.380    32.391    32.391    21.379
 TOTAL    173.191   175.670    92.768    57.334    65.648   278.053
 VIB. THERMAL CORRECTION E(T)-E(0) = H(T)-H(0) =      3992.125 J/MOL

              E         H         G         CV        CP        S
         KCAL/MOL  KCAL/MOL  KCAL/MOL CAL/MOL-K CAL/MOL-K CAL/MOL-K
 ELEC.      0.000     0.000     0.000     0.000     0.000     0.000
 TRANS.     0.889     1.481    -9.846     2.981     4.968    37.991
 ROT.       0.889     0.889    -6.075     2.981     2.981    23.356
 VIB.      39.616    39.616    38.093     7.742     7.742     5.110
 TOTAL     41.394    41.986    22.172    13.703    15.690    66.456
 VIB. THERMAL CORRECTION E(T)-E(0) = H(T)-H(0) =       954.141 CAL/MOL
 ......END OF NORMAL COORDINATE ANALYSIS......
 STEP CPU TIME =     0.00 TOTAL CPU TIME =        781.0 (     13.0 MIN)
 TOTAL WALL CLOCK TIME=        794.3 SECONDS, CPU UTILIZATION IS    98.32%
               1080583  WORDS OF DYNAMIC MEMORY USED
 EXECUTION OF GAMESS TERMINATED NORMALLY Mon Oct  3 21:17:35 2022
 DDI: 263640 bytes (0.3 MB / 0 MWords) used by master data server.

 ----------------------------------------
 CPU timing information for all processes
 ========================================
 0: 775.894 + 5.85 = 780.980
 ----------------------------------------
 ddikick.x: exited gracefully.
----- accounting info -----
Files used on the master node chemcompute-node-2.novalocal were:
-rw-r--r--. 1 chemcomp chemcomp      993 Oct  3 21:04 /scratch/120468/460032.F05
-rw-rw-r--. 1 chemcomp chemcomp 65536000 Oct  3 21:17 /scratch/120468/460032.F10
-rw-rw-r--. 1 chemcomp chemcomp  4143136 Oct  3 21:17 /scratch/120468/460032.F22
Mon Oct  3 21:17:39 UTC 2022
0.102u 0.027s 13:17.72 0.0%	0+0k 8+208io 0pf+0w
Finishing Up...
Looking for IR data...
Looking for Raman data...
vibramans not found
Looking for thermodynamics data...
Looking for UV-Vis data...
chemcompute.org
{'UTCtimestamp': '2022-10-03T21:17:40.937388', 'cluster': 'jetstream2', 'clusterJobNumber': '120468', 'status': 'COMPLETE', 'nodeList': 'chemcompute-node-2'}
120468
